40
Lattice="5.871972 0.0 0.0 0.0 11.774171 0.0 0.0 0.0 8.178836" Properties=species:S:1:pos:R:3:spacegroup_kinds:I:1:field_charges:R:1:initial_charges:R:1:forces:R:3 spacegroup="P b a m" unit_cell=conventional occupancy="_JSON {\"0\": {\"Pb\": 1.0}, \"1\": {\"Pb\": 1.0}, \"2\": {\"Pb\": 1.0}, \"3\": {\"Pb\": 1.0}, \"4\": {\"Pb\": 1.0}, \"5\": {\"Pb\": 1.0}, \"6\": {\"Pb\": 1.0}, \"7\": {\"Pb\": 1.0}, \"8\": {\"Zr\": 1.0}, \"9\": {\"Zr\": 1.0}, \"10\": {\"Zr\": 1.0}, \"11\": {\"Zr\": 1.0}, \"12\": {\"Zr\": 1.0}, \"13\": {\"Zr\": 1.0}, \"14\": {\"Zr\": 1.0}, \"15\": {\"Zr\": 1.0}, \"16\": {\"O\": 1.0}, \"17\": {\"O\": 1.0}, \"18\": {\"O\": 1.0}, \"19\": {\"O\": 1.0}, \"20\": {\"O\": 1.0}, \"21\": {\"O\": 1.0}, \"22\": {\"O\": 1.0}, \"23\": {\"O\": 1.0}, \"24\": {\"O\": 1.0}, \"25\": {\"O\": 1.0}, \"26\": {\"O\": 1.0}, \"27\": {\"O\": 1.0}, \"28\": {\"O\": 1.0}, \"29\": {\"O\": 1.0}, \"30\": {\"O\": 1.0}, \"31\": {\"O\": 1.0}, \"32\": {\"O\": 1.0}, \"33\": {\"O\": 1.0}, \"34\": {\"O\": 1.0}, \"35\": {\"O\": 1.0}, \"36\": {\"O\": 1.0}, \"37\": {\"O\": 1.0}, \"38\": {\"O\": 1.0}, \"39\": {\"O\": 1.0}}" neb_image=0 energy=-39205.764739708866 polarization_c_per_m2="_JSON [-0.0012611573750599988, 0.0349032942069816, -1.3526432333244794e-15]" pbc="T T T"
Pb       1.17373646       1.45287285      -0.00000000        0       2.00000000       2.00000000       0.01811033      -0.02203254      -0.00000000
Pb       4.69823554      10.32129815      -0.00000000        0       2.00000000       2.00000000       0.02886545      -0.02506414      -0.00000000
Pb       1.76224954       7.33995835      -0.00000000        0       2.00000000       2.00000000       0.02886545      -0.02203254      -0.00000000
Pb       4.10972246       4.43421265      -0.00000000        0       2.00000000       2.00000000       0.01811033      -0.02506414      -0.00000000
Pb       1.22777814       1.51267559       4.08941800        4       2.00000000       2.00000000       0.01833476      -0.01928032       0.00000000
Pb       4.64419386      10.26149541       4.08941800        4       2.00000000       2.00000000       0.02864101      -0.02781637       0.00000000
Pb       1.70820786       7.39976109       4.08941800        4       2.00000000       2.00000000       0.02864101      -0.01928032       0.00000000
Pb       4.16376414       4.37440991       4.08941800        4       2.00000000       2.00000000       0.01833476      -0.02781637       0.00000000
Zr       4.35630128       1.46381254       2.04209901        8       4.00000000       4.00000000       0.04074979      -0.05115421       0.00128299
Zr       1.51567072      10.31035846       6.13673699        8       4.00000000       4.00000000       0.05320176      -0.04303916      -0.00128299
Zr       1.51567072      10.31035846       2.04209901        8       4.00000000       4.00000000       0.05320176      -0.04303916       0.00128299
Zr       4.35630128       1.46381254       6.13673699        8       4.00000000       4.00000000       0.04074979      -0.05115421      -0.00128299
Zr       4.45165672       7.35089804       6.13673699        8       4.00000000       4.00000000       0.05320176      -0.05115421      -0.00128299
Zr       1.42031528       4.42327296       2.04209901        8       4.00000000       4.00000000       0.04074979      -0.04303916       0.00128299
Zr       1.42031528       4.42327296       6.13673699        8       4.00000000       4.00000000       0.04074979      -0.04303916      -0.00128299
Zr       4.45165672       7.35089804       2.04209901        8       4.00000000       4.00000000       0.05320176      -0.05115421       0.00128299
O        4.55672239       1.85661981      -0.00000000       16      -2.00000000      -2.00000000      -0.01967453       0.01834648       0.00000000
O        1.31524961       9.91755119      -0.00000000       16      -2.00000000      -2.00000000      -0.02730124       0.02875020       0.00000000
O        4.25123561       7.74370531      -0.00000000       16      -2.00000000      -2.00000000      -0.02730124       0.01834648       0.00000000
O        1.62073639       4.03046569      -0.00000000       16      -2.00000000      -2.00000000      -0.01967453       0.02875020       0.00000000
O        4.70256932       1.10550087       4.08941800       20      -2.00000000      -2.00000000      -0.01760133       0.03098644      -0.00000000
O        1.16940268      10.66867013       4.08941800       20      -2.00000000      -2.00000000      -0.02937445       0.01611025      -0.00000000
O        4.10538868       6.99258637       4.08941800       20      -2.00000000      -2.00000000      -0.02937445       0.03098644      -0.00000000
O        1.76658332       4.78158463       4.08941800       20      -2.00000000      -2.00000000      -0.01760133       0.01611025      -0.00000000
O        3.12999853       3.08379167       2.30409508       24      -2.00000000      -2.00000000      -0.03345472       0.03894801      -0.00556508
O        2.74197347       8.69037933       5.87474092       24      -2.00000000      -2.00000000      -0.01352106       0.00814867       0.00556508
O        2.74197347       8.69037933       2.30409508       24      -2.00000000      -2.00000000      -0.01352106       0.00814867      -0.00556508
O        3.12999853       3.08379167       5.87474092       24      -2.00000000      -2.00000000      -0.03345472       0.03894801       0.00556508
O        5.67795947       8.97087717       5.87474092       24      -2.00000000      -2.00000000      -0.01352106       0.03894801       0.00556508
O        0.19401253       2.80329383       2.30409508       24      -2.00000000      -2.00000000      -0.03345472       0.00814867      -0.00556508
O        0.19401253       2.80329383       5.87474092       24      -2.00000000      -2.00000000      -0.03345472       0.00814867       0.00556508
O        5.67795947       8.97087717       2.30409508       24      -2.00000000      -2.00000000      -0.01352106       0.03894801      -0.00556508
O        2.93598600       5.88708550       1.65175084       32      -2.00000000      -2.00000000      -0.02348789       0.02354834       0.00096873
O        2.93598600       5.88708550       6.52708516       32      -2.00000000      -2.00000000      -0.02348789       0.02354834      -0.00096873
O        0.00000000       0.00000000       6.52708516       32      -2.00000000      -2.00000000      -0.02348789       0.02354834      -0.00096873
O       -0.00000000       0.00000000       1.65175084       32      -2.00000000      -2.00000000      -0.02348789       0.02354834       0.00096873
O        2.93598600       0.00000000       1.87160782       36      -2.00000000      -2.00000000      -0.02348789       0.02354834       0.00119428
O        2.93598600       0.00000000       6.30722818       36      -2.00000000      -2.00000000      -0.02348789       0.02354834      -0.00119428
O        0.00000000       5.88708550       6.30722818       36      -2.00000000      -2.00000000      -0.02348789       0.02354834      -0.00119428
O        0.00000000       5.88708550       1.87160782       36      -2.00000000      -2.00000000      -0.02348789       0.02354834       0.00119428
40
Lattice="5.869489279426103 0.0 0.0 -0.004840220565463728 11.76590660719017 0.0 -6.252645354337285e-05 -3.080175850522192e-07 8.17152492317981" Properties=species:S:1:pos:R:3:spacegroup_kinds:I:1:field_charges:R:1:initial_charges:R:1:forces:R:3 spacegroup="P b a m" unit_cell=conventional occupancy="_JSON {\"0\": {\"Pb\": 1.0}, \"1\": {\"Pb\": 1.0}, \"2\": {\"Pb\": 1.0}, \"3\": {\"Pb\": 1.0}, \"4\": {\"Pb\": 1.0}, \"5\": {\"Pb\": 1.0}, \"6\": {\"Pb\": 1.0}, \"7\": {\"Pb\": 1.0}, \"8\": {\"Zr\": 1.0}, \"9\": {\"Zr\": 1.0}, \"10\": {\"Zr\": 1.0}, \"11\": {\"Zr\": 1.0}, \"12\": {\"Zr\": 1.0}, \"13\": {\"Zr\": 1.0}, \"14\": {\"Zr\": 1.0}, \"15\": {\"Zr\": 1.0}, \"16\": {\"O\": 1.0}, \"17\": {\"O\": 1.0}, \"18\": {\"O\": 1.0}, \"19\": {\"O\": 1.0}, \"20\": {\"O\": 1.0}, \"21\": {\"O\": 1.0}, \"22\": {\"O\": 1.0}, \"23\": {\"O\": 1.0}, \"24\": {\"O\": 1.0}, \"25\": {\"O\": 1.0}, \"26\": {\"O\": 1.0}, \"27\": {\"O\": 1.0}, \"28\": {\"O\": 1.0}, \"29\": {\"O\": 1.0}, \"30\": {\"O\": 1.0}, \"31\": {\"O\": 1.0}, \"32\": {\"O\": 1.0}, \"33\": {\"O\": 1.0}, \"34\": {\"O\": 1.0}, \"35\": {\"O\": 1.0}, \"36\": {\"O\": 1.0}, \"37\": {\"O\": 1.0}, \"38\": {\"O\": 1.0}, \"39\": {\"O\": 1.0}}" neb_image=1 energy=-39205.78205092878 polarization_c_per_m2="_JSON [0.020319408445729853, -0.007432963641967577, 8.4742650622748e-05]" pbc="T T T"
Pb       1.19191135       1.41299990       0.00062516        0       2.00000000       2.00000000       0.00410474      -0.00833530      -0.00008521
Pb       4.70479224      10.27826663      -0.00052660        0       2.00000000       2.00000000       0.00272410      -0.00770243       0.00001658
Pb       1.76974226       7.30651746      -0.00050604        0       2.00000000       2.00000000       0.00242723      -0.00605646       0.00001835
Pb       4.11709625       4.39847345       0.00068280        0       2.00000000       2.00000000       0.00232591      -0.00701123      -0.00009300
Pb       1.22248572       1.49248569       4.08603795        4       2.00000000       2.00000000      -0.00093353      -0.00411132      -0.00006755
Pb       4.63366807      10.23386049       4.08563555        4       2.00000000       2.00000000      -0.00095025      -0.00438663      -0.00001255
Pb       1.72865246       7.36587202       4.08563376        4       2.00000000       2.00000000       0.00520242      -0.00615993      -0.00001865
Pb       4.18565554       4.34250130       4.08601449        4       2.00000000       2.00000000       0.00544262      -0.00620595      -0.00005136
Zr       4.35574332       1.45167257       2.03687056        8       4.00000000       4.00000000       0.00039534      -0.00236824      -0.00076391
Zr       1.51427193      10.29144508       6.12759108        8       4.00000000       4.00000000       0.00071900      -0.00252750      -0.00078197
Zr       1.51419540      10.29131174       2.04385806        8       4.00000000       4.00000000       0.00073128      -0.00251220       0.00077512
Zr       4.35579632       1.45181375       6.13480802        8       4.00000000       4.00000000       0.00039148      -0.00238184       0.00073132
Zr       4.45931085       7.33194185       6.13418673        8       4.00000000       4.00000000       0.00269235      -0.00294082       0.00063537
Zr       1.42810144       4.40706715       2.04329975        8       4.00000000       4.00000000       0.00220171      -0.00281797       0.00062141
Zr       1.42816724       4.40694266       6.12836650        8       4.00000000       4.00000000       0.00219718      -0.00281433      -0.00064760
Zr       4.45923500       7.33207692       2.03725171        8       4.00000000       4.00000000       0.00270373      -0.00294886      -0.00063871
O        4.53345353       1.87325996       0.00003093       16      -2.00000000      -2.00000000      -0.00445577       0.00381101      -0.00000285
O        1.29442583       9.93179210      -0.00003053       16      -2.00000000      -2.00000000      -0.00348138       0.00455634       0.00000484
O        4.25044416       7.74403461      -0.00003322       16      -2.00000000      -2.00000000       0.00094092       0.00122452       0.00000474
O        1.62334161       4.03707794       0.00002677       16      -2.00000000      -2.00000000       0.00110018       0.00203960       0.00000009
O        4.68345351       1.11456184       4.08574467       20      -2.00000000      -2.00000000      -0.00358060       0.00211735       0.00000394
O        1.14924056      10.66899115       4.08576377       20      -2.00000000      -2.00000000      -0.00327299       0.00164024       0.00000412
O        4.10832846       7.00364102       4.08576270       20      -2.00000000      -2.00000000       0.00165440       0.00346715       0.00000356
O        1.76974567       4.78879455       4.08574012       20      -2.00000000      -2.00000000       0.00126873       0.00226208       0.00000576
O        3.13277370       3.09535666       2.29780833       24      -2.00000000      -2.00000000       0.00096765       0.00276925      -0.00078241
O        2.74572517       8.69554611       5.86939312       24      -2.00000000      -2.00000000       0.00190016       0.00248906      -0.00000679
O        2.74643788       8.69622696       2.30241775       24      -2.00000000      -2.00000000       0.00188359       0.00246501       0.00002139
O        3.13182012       3.09448477       5.87316164       24      -2.00000000      -2.00000000       0.00109969       0.00287970       0.00087507
O        5.65998314       8.98187954       5.88298340       24      -2.00000000      -2.00000000      -0.00247669       0.00364501       0.00287879
O        0.17688343       2.81580502       2.31230230       24      -2.00000000      -2.00000000      -0.00359878       0.00329719       0.00227380
O        0.17593848       2.81668968       5.85875162       24      -2.00000000      -2.00000000      -0.00346612       0.00317109      -0.00219843
O        5.66069759       8.98120263       2.28888258       24      -2.00000000      -2.00000000      -0.00249460       0.00367321      -0.00287247
O        2.92565389       5.90289945       1.65382598       32      -2.00000000      -2.00000000      -0.00126574       0.00416246       0.00079558
O        2.92632249       5.90234385       6.51767476       32      -2.00000000      -2.00000000      -0.00131562       0.00420038      -0.00076711
O       -0.00705904       0.01311699       6.52014880       32      -2.00000000      -2.00000000      -0.00160517       0.00274002      -0.00022769
O       -0.00774614       0.01253941       1.65128304       32      -2.00000000      -2.00000000      -0.00152445       0.00280964       0.00027248
O        2.89988756       0.02687883       1.86856812       36      -2.00000000      -2.00000000      -0.00729473       0.00558857      -0.00024882
O        2.90093783       0.02588641       6.30294152       36      -2.00000000      -2.00000000      -0.00739729       0.00567752       0.00028047
O        0.00711393       5.88453291       6.30117758       36      -2.00000000      -2.00000000       0.00197529       0.00025290      -0.00007019
O        0.00605389       5.88352299       1.87024357       36      -2.00000000      -2.00000000       0.00206398       0.00034170       0.00011450
40
Lattice="5.8710828179121375 0.0 0.0 -0.008928796175414226 11.765224529567432 0.0 0.0029598424194465234 3.0746616566315954e-05 8.172901875069702" Properties=species:S:1:pos:R:3:spacegroup_kinds:I:1:field_charges:R:1:initial_charges:R:1:forces:R:3 spacegroup="P b a m" unit_cell=conventional occupancy="_JSON {\"0\": {\"Pb\": 1.0}, \"1\": {\"Pb\": 1.0}, \"2\": {\"Pb\": 1.0}, \"3\": {\"Pb\": 1.0}, \"4\": {\"Pb\": 1.0}, \"5\": {\"Pb\": 1.0}, \"6\": {\"Pb\": 1.0}, \"7\": {\"Pb\": 1.0}, \"8\": {\"Zr\": 1.0}, \"9\": {\"Zr\": 1.0}, \"10\": {\"Zr\": 1.0}, \"11\": {\"Zr\": 1.0}, \"12\": {\"Zr\": 1.0}, \"13\": {\"Zr\": 1.0}, \"14\": {\"Zr\": 1.0}, \"15\": {\"Zr\": 1.0}, \"16\": {\"O\": 1.0}, \"17\": {\"O\": 1.0}, \"18\": {\"O\": 1.0}, \"19\": {\"O\": 1.0}, \"20\": {\"O\": 1.0}, \"21\": {\"O\": 1.0}, \"22\": {\"O\": 1.0}, \"23\": {\"O\": 1.0}, \"24\": {\"O\": 1.0}, \"25\": {\"O\": 1.0}, \"26\": {\"O\": 1.0}, \"27\": {\"O\": 1.0}, \"28\": {\"O\": 1.0}, \"29\": {\"O\": 1.0}, \"30\": {\"O\": 1.0}, \"31\": {\"O\": 1.0}, \"32\": {\"O\": 1.0}, \"33\": {\"O\": 1.0}, \"34\": {\"O\": 1.0}, \"35\": {\"O\": 1.0}, \"36\": {\"O\": 1.0}, \"37\": {\"O\": 1.0}, \"38\": {\"O\": 1.0}, \"39\": {\"O\": 1.0}}" neb_image=2 energy=-39205.78143060136 polarization_c_per_m2="_JSON [0.023073446922628714, -0.026762088669359623, -0.008530444734534888]" pbc="T T T"
Pb       1.19699304       1.39333202      -0.03090693        0       2.00000000       2.00000000       0.00120458       0.00118908       0.00698124
Pb       4.70395746      10.25788452       0.01889917        0       2.00000000       2.00000000      -0.00072288       0.00522187       0.00242882
Pb       1.77316305       7.29539307       0.01846071        0       2.00000000       2.00000000      -0.00221910       0.00185186       0.00151240
Pb       4.11740833       4.38176480      -0.03376820        0       2.00000000       2.00000000       0.00012882       0.00474602       0.00670503
Pb       1.21284377       1.48328023       4.06895889        4       2.00000000       2.00000000       0.00314533       0.00337978       0.00744765
Pb       4.62536103      10.22385030       4.08885466        4       2.00000000       2.00000000       0.00145570       0.00279368       0.00267489
Pb       1.73940832       7.35240704       4.08810436        4       2.00000000       2.00000000      -0.00297801       0.00271127       0.00381722
Pb       4.19534641       4.32707806       4.07178671        4       2.00000000       2.00000000      -0.00073230       0.00408509       0.00452916
Zr       4.35528849       1.44974048       2.03083944        8       4.00000000       4.00000000       0.00104092       0.00109179       0.00174964
Zr       1.50800887      10.28286539       6.12751299        8       4.00000000       4.00000000       0.00097648       0.00128320       0.00105918
Zr       1.51155558      10.28908324       2.04691095        8       4.00000000       4.00000000       0.00028777       0.00028877       0.00041610
Zr       4.35358767       1.44349355       6.13296732        8       4.00000000       4.00000000       0.00115507       0.00186956       0.00125198
Zr       4.46344592       7.32888065       6.13747257        8       4.00000000       4.00000000      -0.00099258       0.00139403       0.00051774
Zr       1.43319997       4.40059577       2.04103168        8       4.00000000       4.00000000      -0.00050872       0.00038203       0.00088665
Zr       1.43100083       4.40503949       6.12398373        8       4.00000000       4.00000000      -0.00052968       0.00085777       0.00147260
Zr       4.46685320       7.32353036       2.03773438        8       4.00000000       4.00000000      -0.00152593       0.00127755       0.00073525
O        4.51856127       1.87482357      -0.00134884       16      -2.00000000      -2.00000000       0.00376549       0.00126351       0.00010919
O        1.28347216       9.94107436       0.00159764       16      -2.00000000      -2.00000000       0.00180724      -0.00308040      -0.00045938
O        4.25875513       7.74364667       0.00166755       16      -2.00000000      -2.00000000      -0.00178619       0.00041415      -0.00027296
O        1.63200703       4.04238451      -0.00083772       16      -2.00000000      -2.00000000      -0.00280713      -0.00253820      -0.00020569
O        4.67621434       1.11747033       4.08753098       20      -2.00000000      -2.00000000       0.00196642      -0.00396532      -0.00048316
O        1.14070544      10.66537966       4.08694052       20      -2.00000000      -2.00000000       0.00154904       0.00172049      -0.00061064
O        4.11776392       7.01621544       4.08690011       20      -2.00000000      -2.00000000      -0.00260652      -0.00446715      -0.00047871
O        1.77413560       4.79208619       4.08790881       20      -2.00000000      -2.00000000      -0.00040482       0.00079472      -0.00061287
O        3.10930764       3.07533211       2.31443762       24      -2.00000000      -2.00000000       0.00439844       0.00301014      -0.00278200
O        2.76094607       8.71183547       5.87171918       24      -2.00000000      -2.00000000       0.00063407      -0.00002736      -0.00357618
O        2.73573596       8.68708373       2.29397593       24      -2.00000000      -2.00000000      -0.00192024      -0.00190514      -0.00014462
O        3.15716063       3.11737522       5.88812117       24      -2.00000000      -2.00000000      -0.00467414      -0.00398109      -0.00434821
O        5.66508522       8.97865926       5.88764433       24      -2.00000000      -2.00000000       0.00297005      -0.00255180      -0.00449809
O        0.14143721       2.85057160       2.32923978       24      -2.00000000      -2.00000000       0.00663544      -0.00668658      -0.00118767
O        0.18908458       2.80612347       5.86841212       24      -2.00000000      -2.00000000      -0.00279147       0.00227853      -0.00568607
O        5.63962251       9.00382793       2.27522110       24      -2.00000000      -2.00000000       0.00052741      -0.00164980       0.00081443
O        2.94688682       5.89366149       1.66065038       32      -2.00000000      -2.00000000      -0.00157585      -0.00084868      -0.00438653
O        2.91973540       5.91624909       6.51672196       32      -2.00000000      -2.00000000      -0.00098849      -0.00096970       0.00017443
O       -0.02235974       0.00830531       6.52192979       32      -2.00000000      -2.00000000       0.00250838       0.00019840      -0.00011034
O        0.00936743       0.03567709       1.65973064       32      -2.00000000      -2.00000000      -0.00320148      -0.00512013      -0.00543403
O        2.91187080       0.01259713       1.87357644       36      -2.00000000      -2.00000000      -0.00064946       0.00133720      -0.00565871
O        2.86570599       0.05568256       6.30390183       36      -2.00000000      -2.00000000       0.00485733      -0.00286728       0.00021839
O        0.00140832       5.87331863       6.30449161       36      -2.00000000      -2.00000000      -0.00226051      -0.00057968      -0.00110628
O        0.04609819       5.91693324       1.87745435       36      -2.00000000      -2.00000000      -0.00513847      -0.00420221      -0.00345985
40
Lattice="5.875664500054764 0.0 0.0 -0.009935052263477762 11.763076340321097 0.0 0.005130531864136772 0.0006498209792042512 8.179057564467366" Properties=species:S:1:pos:R:3:spacegroup_kinds:I:1:field_charges:R:1:initial_charges:R:1:forces:R:3 spacegroup="P b a m" unit_cell=conventional occupancy="_JSON {\"0\": {\"Pb\": 1.0}, \"1\": {\"Pb\": 1.0}, \"2\": {\"Pb\": 1.0}, \"3\": {\"Pb\": 1.0}, \"4\": {\"Pb\": 1.0}, \"5\": {\"Pb\": 1.0}, \"6\": {\"Pb\": 1.0}, \"7\": {\"Pb\": 1.0}, \"8\": {\"Zr\": 1.0}, \"9\": {\"Zr\": 1.0}, \"10\": {\"Zr\": 1.0}, \"11\": {\"Zr\": 1.0}, \"12\": {\"Zr\": 1.0}, \"13\": {\"Zr\": 1.0}, \"14\": {\"Zr\": 1.0}, \"15\": {\"Zr\": 1.0}, \"16\": {\"O\": 1.0}, \"17\": {\"O\": 1.0}, \"18\": {\"O\": 1.0}, \"19\": {\"O\": 1.0}, \"20\": {\"O\": 1.0}, \"21\": {\"O\": 1.0}, \"22\": {\"O\": 1.0}, \"23\": {\"O\": 1.0}, \"24\": {\"O\": 1.0}, \"25\": {\"O\": 1.0}, \"26\": {\"O\": 1.0}, \"27\": {\"O\": 1.0}, \"28\": {\"O\": 1.0}, \"29\": {\"O\": 1.0}, \"30\": {\"O\": 1.0}, \"31\": {\"O\": 1.0}, \"32\": {\"O\": 1.0}, \"33\": {\"O\": 1.0}, \"34\": {\"O\": 1.0}, \"35\": {\"O\": 1.0}, \"36\": {\"O\": 1.0}, \"37\": {\"O\": 1.0}, \"38\": {\"O\": 1.0}, \"39\": {\"O\": 1.0}}" neb_image=3 energy=-39205.769725039674 polarization_c_per_m2="_JSON [0.02253221968207094, -0.04748684627302043, -0.03508821005581106]" pbc="T T T"
Pb       1.19214927       1.38674619      -0.06346217        0       2.00000000       2.00000000       0.00328276       0.00019712       0.02326538
Pb       4.71024699      10.23018232       0.00586775        0       2.00000000       2.00000000      -0.00071965       0.01952121       0.02012609
Pb       1.78500067       7.28593933       0.00984533        0       2.00000000       2.00000000      -0.00814642       0.00547962       0.01280018
Pb       4.11944965       4.35879710      -0.06519097        0       2.00000000       2.00000000      -0.00167203       0.01968105       0.02128201
Pb       1.19919670       1.46750409       4.03634191        4       2.00000000       2.00000000       0.00850894       0.01788934       0.03403786
Pb       4.62195502      10.20940578       4.07854414        4       2.00000000       2.00000000       0.00385420       0.01286090       0.01218847
Pb       1.75505282       7.33801673       4.07216480        4       2.00000000       2.00000000      -0.01081994       0.01284828       0.02021345
Pb       4.20277218       4.30648713       4.05320519        4       2.00000000       2.00000000      -0.00216735       0.01695504       0.01405022
Zr       4.35405306       1.44418421       2.02394375        8       4.00000000       4.00000000       0.00345443       0.00428054       0.00583349
Zr       1.50529203      10.27532472       6.12689226        8       4.00000000       4.00000000       0.00163761       0.00349061       0.00437181
Zr       1.51092872      10.28577969       2.04632403        8       4.00000000       4.00000000       0.00145195       0.00210849       0.00316514
Zr       4.35311739       1.43476792       6.13172276        8       4.00000000       4.00000000       0.00262486       0.00578750       0.00473977
Zr       4.47278062       7.32124032       6.13931320        8       4.00000000       4.00000000      -0.00352061       0.00606823       0.00302496
Zr       1.43684897       4.39840271       2.03834750        8       4.00000000       4.00000000      -0.00119323       0.00055288       0.00315724
Zr       1.43602786       4.40052622       6.12154950        8       4.00000000       4.00000000      -0.00120048       0.00367098       0.00465048
Zr       4.47751408       7.31641309       2.03566527        8       4.00000000       4.00000000      -0.00443361       0.00386333       0.00337318
O        4.50446787       1.86843989      -0.00179173       16      -2.00000000      -2.00000000       0.01458675       0.00647288      -0.00036963
O        1.27471027       9.95414751       0.00379002       16      -2.00000000      -2.00000000       0.00735836      -0.01281656      -0.00173344
O        4.27017830       7.74020215       0.00293134       16      -2.00000000      -2.00000000      -0.00538816       0.00322024      -0.00078478
O        1.64606922       4.05380179       0.00022820       16      -2.00000000      -2.00000000      -0.01131074      -0.01155337      -0.00157258
O        4.67127867       1.13562647       4.09291852       20      -2.00000000      -2.00000000       0.00780818      -0.02198012      -0.00213185
O        1.13421986      10.65446044       4.09299070       20      -2.00000000      -2.00000000       0.00311396       0.00726927      -0.00262332
O        4.13366133       7.03779669       4.09230646       20      -2.00000000      -2.00000000      -0.01040389      -0.02046814      -0.00207713
O        1.77836675       4.78845676       4.09393848       20      -2.00000000      -2.00000000       0.00082415       0.00583189      -0.00241521
O        3.09055259       3.06003209       2.32990253       24      -2.00000000      -2.00000000       0.01027587       0.00551119      -0.00614018
O        2.75863807       8.70864719       5.89512100       24      -2.00000000      -2.00000000       0.00277629       0.00070785      -0.01749020
O        2.74662858       8.69444208       2.29564351       24      -2.00000000      -2.00000000      -0.01141903      -0.01178064      -0.00112164
O        3.18199186       3.13487719       5.91263645       24      -2.00000000      -2.00000000      -0.01095545      -0.00970975      -0.01576966
O        5.65388055       8.99168260       5.91518910       24      -2.00000000      -2.00000000       0.01138632      -0.01020263      -0.01914813
O        0.10959198       2.88290316       2.33775812       24      -2.00000000      -2.00000000       0.01723009      -0.01786367       0.00232732
O        0.20245312       2.79676742       5.89856829       24      -2.00000000      -2.00000000      -0.00375549       0.00300488      -0.02761449
O        5.64099334       9.01065955       2.27259110       24      -2.00000000      -2.00000000      -0.00328567      -0.00100465      -0.00019567
O        2.95724099       5.89625882       1.68284881       32      -2.00000000      -2.00000000       0.00348508      -0.01078047      -0.02318395
O        2.92984107       5.91872710       6.52124237       32      -2.00000000      -2.00000000      -0.00477983      -0.00236771       0.00256922
O       -0.03081528       0.00939291       6.52725428       32      -2.00000000      -2.00000000       0.00658367      -0.00053794       0.00110253
O        0.02597818       0.06112032       1.68741633       32      -2.00000000      -2.00000000      -0.01099494      -0.01841206      -0.02811957
O        2.91807683       0.00592720       1.90207484       36      -2.00000000      -2.00000000       0.00266529      -0.00061233      -0.02475736
O        2.84847019       0.06775940       6.30788710       36      -2.00000000      -2.00000000       0.01199795      -0.00595957      -0.00122903
O        0.01545764       5.87749134       6.31423153       36      -2.00000000      -2.00000000      -0.01021273      -0.00461893      -0.00370807
O        0.07090057       5.93643318       1.89616910       36      -2.00000000      -2.00000000      -0.00852748      -0.00660481      -0.01409292
40