40
Lattice="5.871972 0.0 0.0 0.0 11.774171 0.0 0.0 0.0 8.178836" Properties=species:S:1:pos:R:3:spacegroup_kinds:I:1:field_charges:R:1:initial_charges:R:1:forces:R:3 spacegroup="P b a m" unit_cell=conventional occupancy="_JSON {\"0\": {\"Pb\": 1.0}, \"1\": {\"Pb\": 1.0}, \"2\": {\"Pb\": 1.0}, \"3\": {\"Pb\": 1.0}, \"4\": {\"Pb\": 1.0}, \"5\": {\"Pb\": 1.0}, \"6\": {\"Pb\": 1.0}, \"7\": {\"Pb\": 1.0}, \"8\": {\"Zr\": 1.0}, \"9\": {\"Zr\": 1.0}, \"10\": {\"Zr\": 1.0}, \"11\": {\"Zr\": 1.0}, \"12\": {\"Zr\": 1.0}, \"13\": {\"Zr\": 1.0}, \"14\": {\"Zr\": 1.0}, \"15\": {\"Zr\": 1.0}, \"16\": {\"O\": 1.0}, \"17\": {\"O\": 1.0}, \"18\": {\"O\": 1.0}, \"19\": {\"O\": 1.0}, \"20\": {\"O\": 1.0}, \"21\": {\"O\": 1.0}, \"22\": {\"O\": 1.0}, \"23\": {\"O\": 1.0}, \"24\": {\"O\": 1.0}, \"25\": {\"O\": 1.0}, \"26\": {\"O\": 1.0}, \"27\": {\"O\": 1.0}, \"28\": {\"O\": 1.0}, \"29\": {\"O\": 1.0}, \"30\": {\"O\": 1.0}, \"31\": {\"O\": 1.0}, \"32\": {\"O\": 1.0}, \"33\": {\"O\": 1.0}, \"34\": {\"O\": 1.0}, \"35\": {\"O\": 1.0}, \"36\": {\"O\": 1.0}, \"37\": {\"O\": 1.0}, \"38\": {\"O\": 1.0}, \"39\": {\"O\": 1.0}}" neb_image=0 energy=-39205.764739708866 polarization_c_per_m2="_JSON [-0.0012611573750599988, 0.0349032942069816, -1.3526432333244794e-15]" pbc="T T T"
Pb       1.17373646       1.45287285      -0.00000000        0       2.00000000       2.00000000       0.01811033      -0.02203254      -0.00000000
Pb       4.69823554      10.32129815      -0.00000000        0       2.00000000       2.00000000       0.02886545      -0.02506414      -0.00000000
Pb       1.76224954       7.33995835      -0.00000000        0       2.00000000       2.00000000       0.02886545      -0.02203254      -0.00000000
Pb       4.10972246       4.43421265      -0.00000000        0       2.00000000       2.00000000       0.01811033      -0.02506414      -0.00000000
Pb       1.22777814       1.51267559       4.08941800        4       2.00000000       2.00000000       0.01833476      -0.01928032       0.00000000
Pb       4.64419386      10.26149541       4.08941800        4       2.00000000       2.00000000       0.02864101      -0.02781637       0.00000000
Pb       1.70820786       7.39976109       4.08941800        4       2.00000000       2.00000000       0.02864101      -0.01928032       0.00000000
Pb       4.16376414       4.37440991       4.08941800        4       2.00000000       2.00000000       0.01833476      -0.02781637       0.00000000
Zr       4.35630128       1.46381254       2.04209901        8       4.00000000       4.00000000       0.04074979      -0.05115421       0.00128299
Zr       1.51567072      10.31035846       6.13673699        8       4.00000000       4.00000000       0.05320176      -0.04303916      -0.00128299
Zr       1.51567072      10.31035846       2.04209901        8       4.00000000       4.00000000       0.05320176      -0.04303916       0.00128299
Zr       4.35630128       1.46381254       6.13673699        8       4.00000000       4.00000000       0.04074979      -0.05115421      -0.00128299
Zr       4.45165672       7.35089804       6.13673699        8       4.00000000       4.00000000       0.05320176      -0.05115421      -0.00128299
Zr       1.42031528       4.42327296       2.04209901        8       4.00000000       4.00000000       0.04074979      -0.04303916       0.00128299
Zr       1.42031528       4.42327296       6.13673699        8       4.00000000       4.00000000       0.04074979      -0.04303916      -0.00128299
Zr       4.45165672       7.35089804       2.04209901        8       4.00000000       4.00000000       0.05320176      -0.05115421       0.00128299
O        4.55672239       1.85661981      -0.00000000       16      -2.00000000      -2.00000000      -0.01967453       0.01834648       0.00000000
O        1.31524961       9.91755119      -0.00000000       16      -2.00000000      -2.00000000      -0.02730124       0.02875020       0.00000000
O        4.25123561       7.74370531      -0.00000000       16      -2.00000000      -2.00000000      -0.02730124       0.01834648       0.00000000
O        1.62073639       4.03046569      -0.00000000       16      -2.00000000      -2.00000000      -0.01967453       0.02875020       0.00000000
O        4.70256932       1.10550087       4.08941800       20      -2.00000000      -2.00000000      -0.01760133       0.03098644      -0.00000000
O        1.16940268      10.66867013       4.08941800       20      -2.00000000      -2.00000000      -0.02937445       0.01611025      -0.00000000
O        4.10538868       6.99258637       4.08941800       20      -2.00000000      -2.00000000      -0.02937445       0.03098644      -0.00000000
O        1.76658332       4.78158463       4.08941800       20      -2.00000000      -2.00000000      -0.01760133       0.01611025      -0.00000000
O        3.12999853       3.08379167       2.30409508       24      -2.00000000      -2.00000000      -0.03345472       0.03894801      -0.00556508
O        2.74197347       8.69037933       5.87474092       24      -2.00000000      -2.00000000      -0.01352106       0.00814867       0.00556508
O        2.74197347       8.69037933       2.30409508       24      -2.00000000      -2.00000000      -0.01352106       0.00814867      -0.00556508
O        3.12999853       3.08379167       5.87474092       24      -2.00000000      -2.00000000      -0.03345472       0.03894801       0.00556508
O        5.67795947       8.97087717       5.87474092       24      -2.00000000      -2.00000000      -0.01352106       0.03894801       0.00556508
O        0.19401253       2.80329383       2.30409508       24      -2.00000000      -2.00000000      -0.03345472       0.00814867      -0.00556508
O        0.19401253       2.80329383       5.87474092       24      -2.00000000      -2.00000000      -0.03345472       0.00814867       0.00556508
O        5.67795947       8.97087717       2.30409508       24      -2.00000000      -2.00000000      -0.01352106       0.03894801      -0.00556508
O        2.93598600       5.88708550       1.65175084       32      -2.00000000      -2.00000000      -0.02348789       0.02354834       0.00096873
O        2.93598600       5.88708550       6.52708516       32      -2.00000000      -2.00000000      -0.02348789       0.02354834      -0.00096873
O        0.00000000       0.00000000       6.52708516       32      -2.00000000      -2.00000000      -0.02348789       0.02354834      -0.00096873
O       -0.00000000       0.00000000       1.65175084       32      -2.00000000      -2.00000000      -0.02348789       0.02354834       0.00096873
O        2.93598600       0.00000000       1.87160782       36      -2.00000000      -2.00000000      -0.02348789       0.02354834       0.00119428
O        2.93598600       0.00000000       6.30722818       36      -2.00000000      -2.00000000      -0.02348789       0.02354834      -0.00119428
O        0.00000000       5.88708550       6.30722818       36      -2.00000000      -2.00000000      -0.02348789       0.02354834      -0.00119428
O        0.00000000       5.88708550       1.87160782       36      -2.00000000      -2.00000000      -0.02348789       0.02354834       0.00119428
40
Lattice="5.8694926138047245 0.0 0.0 -0.0047089000187213355 11.76588950158187 0.0 -1.1574094538114199e-05 -2.8720322526071084e-07 8.171544598051753" Properties=species:S:1:pos:R:3:spacegroup_kinds:I:1:field_charges:R:1:initial_charges:R:1:forces:R:3 spacegroup="P b a m" unit_cell=conventional occupancy="_JSON {\"0\": {\"Pb\": 1.0}, \"1\": {\"Pb\": 1.0}, \"2\": {\"Pb\": 1.0}, \"3\": {\"Pb\": 1.0}, \"4\": {\"Pb\": 1.0}, \"5\": {\"Pb\": 1.0}, \"6\": {\"Pb\": 1.0}, \"7\": {\"Pb\": 1.0}, \"8\": {\"Zr\": 1.0}, \"9\": {\"Zr\": 1.0}, \"10\": {\"Zr\": 1.0}, \"11\": {\"Zr\": 1.0}, \"12\": {\"Zr\": 1.0}, \"13\": {\"Zr\": 1.0}, \"14\": {\"Zr\": 1.0}, \"15\": {\"Zr\": 1.0}, \"16\": {\"O\": 1.0}, \"17\": {\"O\": 1.0}, \"18\": {\"O\": 1.0}, \"19\": {\"O\": 1.0}, \"20\": {\"O\": 1.0}, \"21\": {\"O\": 1.0}, \"22\": {\"O\": 1.0}, \"23\": {\"O\": 1.0}, \"24\": {\"O\": 1.0}, \"25\": {\"O\": 1.0}, \"26\": {\"O\": 1.0}, \"27\": {\"O\": 1.0}, \"28\": {\"O\": 1.0}, \"29\": {\"O\": 1.0}, \"30\": {\"O\": 1.0}, \"31\": {\"O\": 1.0}, \"32\": {\"O\": 1.0}, \"33\": {\"O\": 1.0}, \"34\": {\"O\": 1.0}, \"35\": {\"O\": 1.0}, \"36\": {\"O\": 1.0}, \"37\": {\"O\": 1.0}, \"38\": {\"O\": 1.0}, \"39\": {\"O\": 1.0}}" neb_image=1 energy=-39205.781985159374 polarization_c_per_m2="_JSON [0.020176794204163625, -0.006961491713547543, 1.0378892357645586e-05]" pbc="T T T"
Pb       1.19169129       1.41349874       0.00011641        0       2.00000000       2.00000000       0.00428996      -0.00866010      -0.00001265
Pb       4.70487103      10.27859551      -0.00010617        0       2.00000000       2.00000000       0.00286085      -0.00799868       0.00000629
Pb       1.76980382       7.30689785      -0.00010299        0       2.00000000       2.00000000       0.00252548      -0.00629467       0.00000681
Pb       4.11711078       4.39895660       0.00012790        0       2.00000000       2.00000000       0.00244791      -0.00725750      -0.00001422
Pb       1.22264587       1.49272598       4.08582006        4       2.00000000       2.00000000      -0.00091999      -0.00426239      -0.00000844
Pb       4.63393633      10.23414877       4.08574326        4       2.00000000       2.00000000      -0.00095857      -0.00454365       0.00000061
Pb       1.72843647       7.36613399       4.08574166        4       2.00000000       2.00000000       0.00539574      -0.00641038       0.00000071
Pb       4.18539505       4.34273685       4.08581663        4       2.00000000       2.00000000       0.00567017      -0.00645029      -0.00000669
Zr       4.35584339       1.45180801       2.03684585        8       4.00000000       4.00000000       0.00043678      -0.00246868      -0.00078000
Zr       1.51441824      10.29147768       6.12767823        8       4.00000000       4.00000000       0.00077910      -0.00262447      -0.00080827
Zr       1.51440394      10.29145280       2.04384946        8       4.00000000       4.00000000       0.00078093      -0.00262222       0.00080843
Zr       4.35585442       1.45183471       6.13472626        8       4.00000000       4.00000000       0.00043586      -0.00247077       0.00077546
Zr       4.45928611       7.33212424       6.13418829        8       4.00000000       4.00000000       0.00280314      -0.00306195       0.00066241
Zr       1.42811751       4.40713261       2.04320665        8       4.00000000       4.00000000       0.00229404      -0.00293829       0.00065655
Zr       1.42813144       4.40710745       6.12836326        8       4.00000000       4.00000000       0.00229276      -0.00293690      -0.00065994
Zr       4.45927138       7.33215108       2.03733707        8       4.00000000       4.00000000       0.00280516      -0.00306388      -0.00066127
O        4.53373750       1.87308767       0.00000613       16      -2.00000000      -2.00000000      -0.00459446       0.00399927      -0.00000061
O        1.29468280       9.93157858      -0.00000572       16      -2.00000000      -2.00000000      -0.00361519       0.00473692       0.00000070
O        4.25040007       7.74399769      -0.00000647       16      -2.00000000      -2.00000000       0.00093227       0.00128842       0.00000093
O        1.62323513       4.03698176       0.00000558       16      -2.00000000      -2.00000000       0.00109773       0.00210955      -0.00000024
O        4.68372186       1.11447056       4.08576945       20      -2.00000000      -2.00000000      -0.00370723       0.00219361       0.00000033
O        1.14951880      10.66885408       4.08577319       20      -2.00000000      -2.00000000      -0.00340704       0.00172631       0.00000031
O        4.10823037       7.00356357       4.08577284       20      -2.00000000      -2.00000000       0.00168072       0.00358762       0.00000032
O        1.76969465       4.78879484       4.08576874       20      -2.00000000      -2.00000000       0.00130816       0.00237831       0.00000053
O        3.13223326       3.09473516       2.29819262       24      -2.00000000      -2.00000000       0.00105636       0.00292897      -0.00084961
O        2.74584903       8.69548448       5.86943152       24      -2.00000000      -2.00000000       0.00195109       0.00255991      -0.00002396
O        2.74599637       8.69562492       2.30217486       24      -2.00000000      -2.00000000       0.00194188       0.00254975       0.00002260
O        3.13205642       3.09457096       5.87325063       24      -2.00000000      -2.00000000       0.00107643       0.00294678       0.00086295
O        5.66038932       8.98154878       5.88279724       24      -2.00000000      -2.00000000      -0.00258671       0.00380684       0.00299009
O        0.17663822       2.81607565       2.31240439       24      -2.00000000      -2.00000000      -0.00367717       0.00336138       0.00235186
O        0.17646376       2.81623991       5.85905570       24      -2.00000000      -2.00000000      -0.00365742       0.00334206      -0.00234230
O        5.66053603       8.98141174       2.28881920       24      -2.00000000      -2.00000000      -0.00259557       0.00381584      -0.00299310
O        2.92618502       5.90233824       1.65375338       32      -2.00000000      -2.00000000      -0.00136773       0.00435429       0.00079111
O        2.92631797       5.90222741       6.51779150       32      -2.00000000      -2.00000000      -0.00137959       0.00436391      -0.00078961
O       -0.00710355       0.01284901       6.52019959       32      -2.00000000      -2.00000000      -0.00162442       0.00287967      -0.00024004
O       -0.00723620       0.01273860       1.65133161       32      -2.00000000      -2.00000000      -0.00161031       0.00289139       0.00024517
O        2.90087164       0.02604342       1.86865644       36      -2.00000000      -2.00000000      -0.00761134       0.00584607      -0.00028691
O        2.90107580       0.02584954       6.30289006       36      -2.00000000      -2.00000000      -0.00763061       0.00586372       0.00028876
O        0.00670926       5.88417694       6.30123800       36      -2.00000000      -2.00000000       0.00203119       0.00025830      -0.00008087
O        0.00650107       5.88398004       1.87029123       36      -2.00000000      -2.00000000       0.00204964       0.00027592       0.00008580
40
Lattice="5.870144791444566 0.0 0.0 -0.007926312239166159 11.765288678387975 0.0 0.002902719456405224 8.489412030050714e-05 8.172373477384694" Properties=species:S:1:pos:R:3:spacegroup_kinds:I:1:field_charges:R:1:initial_charges:R:1:forces:R:3 spacegroup="P b a m" unit_cell=conventional occupancy="_JSON {\"0\": {\"Pb\": 1.0}, \"1\": {\"Pb\": 1.0}, \"2\": {\"Pb\": 1.0}, \"3\": {\"Pb\": 1.0}, \"4\": {\"Pb\": 1.0}, \"5\": {\"Pb\": 1.0}, \"6\": {\"Pb\": 1.0}, \"7\": {\"Pb\": 1.0}, \"8\": {\"Zr\": 1.0}, \"9\": {\"Zr\": 1.0}, \"10\": {\"Zr\": 1.0}, \"11\": {\"Zr\": 1.0}, \"12\": {\"Zr\": 1.0}, \"13\": {\"Zr\": 1.0}, \"14\": {\"Zr\": 1.0}, \"15\": {\"Zr\": 1.0}, \"16\": {\"O\": 1.0}, \"17\": {\"O\": 1.0}, \"18\": {\"O\": 1.0}, \"19\": {\"O\": 1.0}, \"20\": {\"O\": 1.0}, \"21\": {\"O\": 1.0}, \"22\": {\"O\": 1.0}, \"23\": {\"O\": 1.0}, \"24\": {\"O\": 1.0}, \"25\": {\"O\": 1.0}, \"26\": {\"O\": 1.0}, \"27\": {\"O\": 1.0}, \"28\": {\"O\": 1.0}, \"29\": {\"O\": 1.0}, \"30\": {\"O\": 1.0}, \"31\": {\"O\": 1.0}, \"32\": {\"O\": 1.0}, \"33\": {\"O\": 1.0}, \"34\": {\"O\": 1.0}, \"35\": {\"O\": 1.0}, \"36\": {\"O\": 1.0}, \"37\": {\"O\": 1.0}, \"38\": {\"O\": 1.0}, \"39\": {\"O\": 1.0}}" neb_image=2 energy=-39205.78182645542 polarization_c_per_m2="_JSON [0.02311044359984136, -0.02279340850032193, -0.004190591023965862]" pbc="T T T"
Pb       1.19788012       1.39605137      -0.02987402        0       2.00000000       2.00000000       0.00022971       0.00054716       0.00460992
Pb       4.70328283      10.26243794       0.02469119        0       2.00000000       2.00000000      -0.00031052       0.00241189      -0.00074828
Pb       1.77115900       7.29698523       0.02428876        0       2.00000000       2.00000000      -0.00069752       0.00111911      -0.00125390
Pb       4.11806255       4.38578293      -0.03294271        0       2.00000000       2.00000000      -0.00018515       0.00183260       0.00425218
Pb       1.21591588       1.48536762       4.07237764        4       2.00000000       2.00000000       0.00142213       0.00156203       0.00366143
Pb       4.62695179      10.22629136       4.09240159        4       2.00000000       2.00000000       0.00086265       0.00092526       0.00047788
Pb       1.73715326       7.35485436       4.09275660        4       2.00000000       2.00000000      -0.00120181       0.00110549       0.00049068
Pb       4.19397069       4.33051821       4.07392617        4       2.00000000       2.00000000      -0.00015572       0.00191935       0.00243793
Zr       4.35619900       1.45116693       2.03165569        8       4.00000000       4.00000000       0.00031974       0.00038868       0.00098181
Zr       1.50932111      10.28383737       6.12848375        8       4.00000000       4.00000000       0.00061997       0.00072268       0.00029293
Zr       1.51285601      10.28999969       2.04740896        8       4.00000000       4.00000000       0.00002164       0.00004585      -0.00003141
Zr       4.35376641       1.44471879       6.13292195        8       4.00000000       4.00000000       0.00065064       0.00096601       0.00068828
Zr       4.46183045       7.33072398       6.13801335        8       4.00000000       4.00000000      -0.00029838       0.00035449      -0.00004390
Zr       1.43320598       4.40055453       2.04112336        8       4.00000000       4.00000000      -0.00033699       0.00039667       0.00050786
Zr       1.43001555       4.40637313       6.12445165        8       4.00000000       4.00000000      -0.00013455       0.00021387       0.00075014
Zr       4.46553897       7.32431132       2.03881840        8       4.00000000       4.00000000      -0.00079546       0.00070255       0.00005249
O        4.52061554       1.87534956      -0.00153902       16      -2.00000000      -2.00000000       0.00236766       0.00069870       0.00015574
O        1.28631153       9.93891193       0.00150043       16      -2.00000000      -2.00000000       0.00054808      -0.00140738      -0.00028804
O        4.25672805       7.74397664       0.00176032       16      -2.00000000      -2.00000000      -0.00085423      -0.00002074      -0.00025063
O        1.62949670       4.04063963      -0.00124696       16      -2.00000000      -2.00000000      -0.00129851      -0.00103549       0.00002281
O        4.67727610       1.11562796       4.08693360       20      -2.00000000      -2.00000000       0.00079781      -0.00157380      -0.00018978
O        1.14314371      10.66684806       4.08615400       20      -2.00000000      -2.00000000       0.00078509       0.00077724      -0.00021344
O        4.11591283       7.01258426       4.08622016       20      -2.00000000      -2.00000000      -0.00132394      -0.00176474      -0.00017170
O        1.77287014       4.79227017       4.08717121       20      -2.00000000      -2.00000000       0.00012360       0.00003743      -0.00021957
O        3.10958242       3.07478633       2.31356778       24      -2.00000000      -2.00000000       0.00351846       0.00284384      -0.00222506
O        2.76597778       8.71591063       5.86643615       24      -2.00000000      -2.00000000      -0.00099007      -0.00122525      -0.00074131
O        2.73125956       8.68237078       2.29265637       24      -2.00000000      -2.00000000       0.00058875       0.00071696       0.00040245
O        3.15553251       3.11684558       5.88590727       24      -2.00000000      -2.00000000      -0.00269955      -0.00249056      -0.00191345
O        5.67161899       8.97271489       5.88200142       24      -2.00000000      -2.00000000       0.00017632      -0.00018619      -0.00144708
O        0.14460587       2.84761733       2.32800904       24      -2.00000000      -2.00000000       0.00447442      -0.00444328      -0.00082445
O        0.18992825       2.80481100       5.86624699       24      -2.00000000      -2.00000000      -0.00195328       0.00177269      -0.00292080
O        5.63718765       9.00499362       2.27426778       24      -2.00000000      -2.00000000       0.00163901      -0.00206042       0.00118527
O        2.94762848       5.89111343       1.65744436       32      -2.00000000      -2.00000000      -0.00241474       0.00108748      -0.00145622
O        2.91513660       5.91834535       6.51560367       32      -2.00000000      -2.00000000       0.00034439      -0.00109252       0.00021390
O       -0.02326926       0.00589643       6.52109082       32      -2.00000000      -2.00000000       0.00187357       0.00062137      -0.00002367
O        0.01028200       0.03406564       1.65649116       32      -2.00000000      -2.00000000      -0.00276196      -0.00333754      -0.00235680
O        2.91610815       0.00909444       1.87004688       36      -2.00000000      -2.00000000      -0.00222908       0.00252323      -0.00270647
O        2.86544888       0.05715579       6.30287704       36      -2.00000000      -2.00000000       0.00354331      -0.00255767       0.00059326
O       -0.00558094       5.86801453       6.30364088       36      -2.00000000      -2.00000000       0.00014019       0.00073896      -0.00076154
O        0.04546500       5.91663543       1.87423168       36      -2.00000000      -2.00000000      -0.00440572      -0.00383600      -0.00098947
40
Lattice="5.873090119315387 0.0 0.0 -0.004865974407260472 11.762581853947509 0.0 0.00590112331826349 0.00025318677553387933 8.177086303358992" Properties=species:S:1:pos:R:3:spacegroup_kinds:I:1:field_charges:R:1:initial_charges:R:1:forces:R:3 spacegroup="P b a m" unit_cell=conventional occupancy="_JSON {\"0\": {\"Pb\": 1.0}, \"1\": {\"Pb\": 1.0}, \"2\": {\"Pb\": 1.0}, \"3\": {\"Pb\": 1.0}, \"4\": {\"Pb\": 1.0}, \"5\": {\"Pb\": 1.0}, \"6\": {\"Pb\": 1.0}, \"7\": {\"Pb\": 1.0}, \"8\": {\"Zr\": 1.0}, \"9\": {\"Zr\": 1.0}, \"10\": {\"Zr\": 1.0}, \"11\": {\"Zr\": 1.0}, \"12\": {\"Zr\": 1.0}, \"13\": {\"Zr\": 1.0}, \"14\": {\"Zr\": 1.0}, \"15\": {\"Zr\": 1.0}, \"16\": {\"O\": 1.0}, \"17\": {\"O\": 1.0}, \"18\": {\"O\": 1.0}, \"19\": {\"O\": 1.0}, \"20\": {\"O\": 1.0}, \"21\": {\"O\": 1.0}, \"22\": {\"O\": 1.0}, \"23\": {\"O\": 1.0}, \"24\": {\"O\": 1.0}, \"25\": {\"O\": 1.0}, \"26\": {\"O\": 1.0}, \"27\": {\"O\": 1.0}, \"28\": {\"O\": 1.0}, \"29\": {\"O\": 1.0}, \"30\": {\"O\": 1.0}, \"31\": {\"O\": 1.0}, \"32\": {\"O\": 1.0}, \"33\": {\"O\": 1.0}, \"34\": {\"O\": 1.0}, \"35\": {\"O\": 1.0}, \"36\": {\"O\": 1.0}, \"37\": {\"O\": 1.0}, \"38\": {\"O\": 1.0}, \"39\": {\"O\": 1.0}}" neb_image=3 energy=-39205.77432626475 polarization_c_per_m2="_JSON [0.02196523530098532, -0.039379693207798216, -0.022296446915031454]" pbc="T T T"
Pb       1.19725443       1.38900056      -0.06539791        0       2.00000000       2.00000000      -0.00004567       0.00117148       0.01864759
Pb       4.71107617      10.23830695       0.02740857        0       2.00000000       2.00000000      -0.00164009       0.01470321       0.01109798
Pb       1.78053046       7.28631911       0.03114254        0       2.00000000       2.00000000      -0.00401509       0.00858988       0.00394559
Pb       4.12254966       4.37020420      -0.06552554        0       2.00000000       2.00000000      -0.00121257       0.01387709       0.01379851
Pb       1.20531610       1.47254720       4.04501323        4       2.00000000       2.00000000       0.00665406       0.01372250       0.02450936
Pb       4.62555287      10.21672499       4.08937074        4       2.00000000       2.00000000       0.00438669       0.00816618       0.00722658
Pb       1.75134930       7.34310899       4.08930946        4       2.00000000       2.00000000      -0.00861344       0.00709070       0.00782596
Pb       4.19999162       4.31202767       4.05664139        4       2.00000000       2.00000000      -0.00094293       0.01309895       0.00969019
Zr       4.35623874       1.44696109       2.02468718        8       4.00000000       4.00000000       0.00237826       0.00340101       0.00476956
Zr       1.50986978      10.27545700       6.12907350        8       4.00000000       4.00000000       0.00165355       0.00266295       0.00297292
Zr       1.51642199      10.28657713       2.04859785        8       4.00000000       4.00000000       0.00094694       0.00199638       0.00161455
Zr       4.35316249       1.43648346       6.13124216        8       4.00000000       4.00000000       0.00210940       0.00412434       0.00326062
Zr       4.47142619       7.32576081       6.14137157        8       4.00000000       4.00000000      -0.00268924       0.00420453       0.00097035
Zr       1.43849996       4.39662521       2.03831098        8       4.00000000       4.00000000      -0.00061800       0.00090337       0.00177115
Zr       1.43576791       4.40321282       6.12191239        8       4.00000000       4.00000000      -0.00086323       0.00299236       0.00331770
Zr       4.47725032       7.31710118       2.03914559        8       4.00000000       4.00000000      -0.00345444       0.00296771       0.00171761
O        4.50330185       1.86921334      -0.00260821       16      -2.00000000      -2.00000000       0.01528171       0.00499024      -0.00001058
O        1.28406597       9.94859013       0.00377074       16      -2.00000000      -2.00000000       0.00375784      -0.00964766      -0.00125598
O        4.26881988       7.74252913       0.00366110       16      -2.00000000      -2.00000000      -0.00332084       0.00006487      -0.00069621
O        1.64294472       4.04811437      -0.00121387       16      -2.00000000      -2.00000000      -0.00894783      -0.00780654      -0.00078329
O        4.67435815       1.12705127       4.09084922       20      -2.00000000      -2.00000000       0.00508125      -0.01535472      -0.00130569
O        1.14088373      10.65665571       4.09037011       20      -2.00000000      -2.00000000       0.00366921       0.00423309      -0.00169141
O        4.13239946       7.02764328       4.09005357       20      -2.00000000      -2.00000000      -0.00872332      -0.01125756      -0.00127021
O        1.77583130       4.79257898       4.09135645       20      -2.00000000      -2.00000000       0.00140477       0.00269841      -0.00129333
O        3.08377230       3.05084906       2.33415183       24      -2.00000000      -2.00000000       0.00975554       0.00593843      -0.00590667
O        2.77551860       8.71978299       5.87924013       24      -2.00000000      -2.00000000      -0.00082576      -0.00245158      -0.00641895
O        2.73175736       8.67529096       2.28991756       24      -2.00000000      -2.00000000      -0.00628894      -0.00581924      -0.00284006
O        3.17911857       3.13347231       5.90262331       24      -2.00000000      -2.00000000      -0.00800086      -0.00773355      -0.00955786
O        5.67263192       8.97703042       5.90038508       24      -2.00000000      -2.00000000       0.00680291      -0.00664170      -0.01314715
O        0.10873466       2.88436515       2.33735688       24      -2.00000000      -2.00000000       0.01541746      -0.01575776       0.00274665
O        0.20517435       2.79373798       5.89123420       24      -2.00000000      -2.00000000      -0.00309780       0.00289271      -0.02012063
O        5.62998958       9.01997131       2.26560481       24      -2.00000000      -2.00000000       0.00028106      -0.00330117       0.00190963
O        2.97187385       5.88065909       1.67038569       32      -2.00000000      -2.00000000      -0.00193299      -0.00403151      -0.01182288
O        2.92262405       5.92252604       6.51845234       32      -2.00000000      -2.00000000      -0.00214833      -0.00338578       0.00208372
O       -0.03283176       0.00432958       6.52496026       32      -2.00000000      -2.00000000       0.00547446      -0.00037619       0.00051726
O        0.03341187       0.06211153       1.67721503       32      -2.00000000      -2.00000000      -0.01023822      -0.01546219      -0.01880590
O        2.93441140      -0.01019368       1.89356014       36      -2.00000000      -2.00000000      -0.00075566       0.00275901      -0.01937205
O        2.84360908       0.07431497       6.30229821       36      -2.00000000      -2.00000000       0.01097856      -0.00639463       0.00090472
O        0.00345421       5.86636461       6.31384617       36      -2.00000000      -2.00000000      -0.00708014      -0.00303314      -0.00442572
O        0.08433949       5.94711702       1.88360608       36      -2.00000000      -2.00000000      -0.01057831      -0.00879447      -0.00457362
40