40
Lattice="5.871972 0.0 0.0 0.0 11.774171 0.0 0.0 0.0 8.178836" Properties=species:S:1:pos:R:3:spacegroup_kinds:I:1:field_charges:R:1:initial_charges:R:1:forces:R:3 spacegroup="P b a m" unit_cell=conventional occupancy="_JSON {\"0\": {\"Pb\": 1.0}, \"1\": {\"Pb\": 1.0}, \"2\": {\"Pb\": 1.0}, \"3\": {\"Pb\": 1.0}, \"4\": {\"Pb\": 1.0}, \"5\": {\"Pb\": 1.0}, \"6\": {\"Pb\": 1.0}, \"7\": {\"Pb\": 1.0}, \"8\": {\"Zr\": 1.0}, \"9\": {\"Zr\": 1.0}, \"10\": {\"Zr\": 1.0}, \"11\": {\"Zr\": 1.0}, \"12\": {\"Zr\": 1.0}, \"13\": {\"Zr\": 1.0}, \"14\": {\"Zr\": 1.0}, \"15\": {\"Zr\": 1.0}, \"16\": {\"O\": 1.0}, \"17\": {\"O\": 1.0}, \"18\": {\"O\": 1.0}, \"19\": {\"O\": 1.0}, \"20\": {\"O\": 1.0}, \"21\": {\"O\": 1.0}, \"22\": {\"O\": 1.0}, \"23\": {\"O\": 1.0}, \"24\": {\"O\": 1.0}, \"25\": {\"O\": 1.0}, \"26\": {\"O\": 1.0}, \"27\": {\"O\": 1.0}, \"28\": {\"O\": 1.0}, \"29\": {\"O\": 1.0}, \"30\": {\"O\": 1.0}, \"31\": {\"O\": 1.0}, \"32\": {\"O\": 1.0}, \"33\": {\"O\": 1.0}, \"34\": {\"O\": 1.0}, \"35\": {\"O\": 1.0}, \"36\": {\"O\": 1.0}, \"37\": {\"O\": 1.0}, \"38\": {\"O\": 1.0}, \"39\": {\"O\": 1.0}}" neb_image=0 energy=-39205.764739708866 polarization_c_per_m2="_JSON [-0.0012611573750599988, 0.0349032942069816, -1.3526432333244794e-15]" pbc="T T T"
Pb       1.17373646       1.45287285      -0.00000000        0       2.00000000       2.00000000       0.01811033      -0.02203254      -0.00000000
Pb       4.69823554      10.32129815      -0.00000000        0       2.00000000       2.00000000       0.02886545      -0.02506414      -0.00000000
Pb       1.76224954       7.33995835      -0.00000000        0       2.00000000       2.00000000       0.02886545      -0.02203254      -0.00000000
Pb       4.10972246       4.43421265      -0.00000000        0       2.00000000       2.00000000       0.01811033      -0.02506414      -0.00000000
Pb       1.22777814       1.51267559       4.08941800        4       2.00000000       2.00000000       0.01833476      -0.01928032       0.00000000
Pb       4.64419386      10.26149541       4.08941800        4       2.00000000       2.00000000       0.02864101      -0.02781637       0.00000000
Pb       1.70820786       7.39976109       4.08941800        4       2.00000000       2.00000000       0.02864101      -0.01928032       0.00000000
Pb       4.16376414       4.37440991       4.08941800        4       2.00000000       2.00000000       0.01833476      -0.02781637       0.00000000
Zr       4.35630128       1.46381254       2.04209901        8       4.00000000       4.00000000       0.04074979      -0.05115421       0.00128299
Zr       1.51567072      10.31035846       6.13673699        8       4.00000000       4.00000000       0.05320176      -0.04303916      -0.00128299
Zr       1.51567072      10.31035846       2.04209901        8       4.00000000       4.00000000       0.05320176      -0.04303916       0.00128299
Zr       4.35630128       1.46381254       6.13673699        8       4.00000000       4.00000000       0.04074979      -0.05115421      -0.00128299
Zr       4.45165672       7.35089804       6.13673699        8       4.00000000       4.00000000       0.05320176      -0.05115421      -0.00128299
Zr       1.42031528       4.42327296       2.04209901        8       4.00000000       4.00000000       0.04074979      -0.04303916       0.00128299
Zr       1.42031528       4.42327296       6.13673699        8       4.00000000       4.00000000       0.04074979      -0.04303916      -0.00128299
Zr       4.45165672       7.35089804       2.04209901        8       4.00000000       4.00000000       0.05320176      -0.05115421       0.00128299
O        4.55672239       1.85661981      -0.00000000       16      -2.00000000      -2.00000000      -0.01967453       0.01834648       0.00000000
O        1.31524961       9.91755119      -0.00000000       16      -2.00000000      -2.00000000      -0.02730124       0.02875020       0.00000000
O        4.25123561       7.74370531      -0.00000000       16      -2.00000000      -2.00000000      -0.02730124       0.01834648       0.00000000
O        1.62073639       4.03046569      -0.00000000       16      -2.00000000      -2.00000000      -0.01967453       0.02875020       0.00000000
O        4.70256932       1.10550087       4.08941800       20      -2.00000000      -2.00000000      -0.01760133       0.03098644      -0.00000000
O        1.16940268      10.66867013       4.08941800       20      -2.00000000      -2.00000000      -0.02937445       0.01611025      -0.00000000
O        4.10538868       6.99258637       4.08941800       20      -2.00000000      -2.00000000      -0.02937445       0.03098644      -0.00000000
O        1.76658332       4.78158463       4.08941800       20      -2.00000000      -2.00000000      -0.01760133       0.01611025      -0.00000000
O        3.12999853       3.08379167       2.30409508       24      -2.00000000      -2.00000000      -0.03345472       0.03894801      -0.00556508
O        2.74197347       8.69037933       5.87474092       24      -2.00000000      -2.00000000      -0.01352106       0.00814867       0.00556508
O        2.74197347       8.69037933       2.30409508       24      -2.00000000      -2.00000000      -0.01352106       0.00814867      -0.00556508
O        3.12999853       3.08379167       5.87474092       24      -2.00000000      -2.00000000      -0.03345472       0.03894801       0.00556508
O        5.67795947       8.97087717       5.87474092       24      -2.00000000      -2.00000000      -0.01352106       0.03894801       0.00556508
O        0.19401253       2.80329383       2.30409508       24      -2.00000000      -2.00000000      -0.03345472       0.00814867      -0.00556508
O        0.19401253       2.80329383       5.87474092       24      -2.00000000      -2.00000000      -0.03345472       0.00814867       0.00556508
O        5.67795947       8.97087717       2.30409508       24      -2.00000000      -2.00000000      -0.01352106       0.03894801      -0.00556508
O        2.93598600       5.88708550       1.65175084       32      -2.00000000      -2.00000000      -0.02348789       0.02354834       0.00096873
O        2.93598600       5.88708550       6.52708516       32      -2.00000000      -2.00000000      -0.02348789       0.02354834      -0.00096873
O        0.00000000       0.00000000       6.52708516       32      -2.00000000      -2.00000000      -0.02348789       0.02354834      -0.00096873
O       -0.00000000       0.00000000       1.65175084       32      -2.00000000      -2.00000000      -0.02348789       0.02354834       0.00096873
O        2.93598600       0.00000000       1.87160782       36      -2.00000000      -2.00000000      -0.02348789       0.02354834       0.00119428
O        2.93598600       0.00000000       6.30722818       36      -2.00000000      -2.00000000      -0.02348789       0.02354834      -0.00119428
O        0.00000000       5.88708550       6.30722818       36      -2.00000000      -2.00000000      -0.02348789       0.02354834      -0.00119428
O        0.00000000       5.88708550       1.87160782       36      -2.00000000      -2.00000000      -0.02348789       0.02354834       0.00119428
40
Lattice="5.869492798167871 0.0 0.0 -0.0047050738417665355 11.765890148431263 0.0 -7.793644784573945e-06 -1.997198000274588e-07 8.171546260450226" Properties=species:S:1:pos:R:3:spacegroup_kinds:I:1:field_charges:R:1:initial_charges:R:1:forces:R:3 spacegroup="P b a m" unit_cell=conventional occupancy="_JSON {\"0\": {\"Pb\": 1.0}, \"1\": {\"Pb\": 1.0}, \"2\": {\"Pb\": 1.0}, \"3\": {\"Pb\": 1.0}, \"4\": {\"Pb\": 1.0}, \"5\": {\"Pb\": 1.0}, \"6\": {\"Pb\": 1.0}, \"7\": {\"Pb\": 1.0}, \"8\": {\"Zr\": 1.0}, \"9\": {\"Zr\": 1.0}, \"10\": {\"Zr\": 1.0}, \"11\": {\"Zr\": 1.0}, \"12\": {\"Zr\": 1.0}, \"13\": {\"Zr\": 1.0}, \"14\": {\"Zr\": 1.0}, \"15\": {\"Zr\": 1.0}, \"16\": {\"O\": 1.0}, \"17\": {\"O\": 1.0}, \"18\": {\"O\": 1.0}, \"19\": {\"O\": 1.0}, \"20\": {\"O\": 1.0}, \"21\": {\"O\": 1.0}, \"22\": {\"O\": 1.0}, \"23\": {\"O\": 1.0}, \"24\": {\"O\": 1.0}, \"25\": {\"O\": 1.0}, \"26\": {\"O\": 1.0}, \"27\": {\"O\": 1.0}, \"28\": {\"O\": 1.0}, \"29\": {\"O\": 1.0}, \"30\": {\"O\": 1.0}, \"31\": {\"O\": 1.0}, \"32\": {\"O\": 1.0}, \"33\": {\"O\": 1.0}, \"34\": {\"O\": 1.0}, \"35\": {\"O\": 1.0}, \"36\": {\"O\": 1.0}, \"37\": {\"O\": 1.0}, \"38\": {\"O\": 1.0}, \"39\": {\"O\": 1.0}}" neb_image=1 energy=-39205.781982166984 polarization_c_per_m2="_JSON [0.020167545559752965, -0.006939293257481011, 7.549154623241214e-06]" pbc="T T T"
Pb       1.19168053       1.41351980       0.00007916        0       2.00000000       2.00000000       0.00429851      -0.00867182      -0.00000871
Pb       4.70486929      10.27861372      -0.00007145        0       2.00000000       2.00000000       0.00287421      -0.00801423       0.00000381
Pb       1.76980371       7.30691918      -0.00006932        0       2.00000000       2.00000000       0.00253641      -0.00630748       0.00000421
Pb       4.11710738       4.39898284       0.00008705        0       2.00000000       2.00000000       0.00245902      -0.00726960      -0.00000987
Pb       1.22264999       1.49274008       4.08580609        4       2.00000000       2.00000000      -0.00091290      -0.00427160      -0.00000619
Pb       4.63394545      10.23416521       4.08575384        4       2.00000000       2.00000000      -0.00095238      -0.00455240       0.00000014
Pb       1.72842355       7.36614938       4.08575275        4       2.00000000       2.00000000       0.00540619      -0.00642524       0.00000024
Pb       4.18537920       4.34274988       4.08580363        4       2.00000000       2.00000000       0.00568120      -0.00646516      -0.00000488
Zr       4.35584803       1.45181678       2.03684346        8       4.00000000       4.00000000       0.00044278      -0.00247712      -0.00078091
Zr       1.51442170      10.29147894       6.12768441        8       4.00000000       4.00000000       0.00078771      -0.00263194      -0.00080966
Zr       1.51441197      10.29146214       2.04385057        8       4.00000000       4.00000000       0.00078892      -0.00263046       0.00080959
Zr       4.35585539       1.45183484       6.13472172        8       4.00000000       4.00000000       0.00044228      -0.00247848       0.00077756
Zr       4.45928322       7.33213669       6.13419038        8       4.00000000       4.00000000       0.00281219      -0.00307114       0.00066337
Zr       1.42811817       4.40713567       2.04320105        8       4.00000000       4.00000000       0.00230107      -0.00294739       0.00065818
Zr       1.42812752       4.40711874       6.12836258        8       4.00000000       4.00000000       0.00230030      -0.00294657      -0.00066061
Zr       4.45927323       7.33215483       2.03734298        8       4.00000000       4.00000000       0.00281355      -0.00307235      -0.00066264
O        4.53375037       1.87307700       0.00000417       16      -2.00000000      -2.00000000      -0.00460060       0.00401236      -0.00000043
O        1.29469311       9.93156697      -0.00000390       16      -2.00000000      -2.00000000      -0.00362544       0.00474863       0.00000047
O        4.25039918       7.74399689      -0.00000442       16      -2.00000000      -2.00000000       0.00092571       0.00129459       0.00000067
O        1.62323138       4.03697652       0.00000377       16      -2.00000000      -2.00000000       0.00109154       0.00211539      -0.00000014
O        4.68373423       1.11446065       4.08577119       20      -2.00000000      -2.00000000      -0.00371238       0.00220424       0.00000023
O        1.14953206      10.66884558       4.08577366       20      -2.00000000      -2.00000000      -0.00341582       0.00173514       0.00000027
O        4.10822609       7.00356204       4.08577340       20      -2.00000000      -2.00000000       0.00167542       0.00359571       0.00000029
O        1.76969169       4.78879669       4.08577067       20      -2.00000000      -2.00000000       0.00130676       0.00238704       0.00000039
O        3.13219404       3.09469262       2.29821948       24      -2.00000000      -2.00000000       0.00105780       0.00293866      -0.00085299
O        2.74586277       8.69549042       5.86943119       24      -2.00000000      -2.00000000       0.00194857       0.00255889      -0.00002224
O        2.74596180       8.69558493       2.30215621       24      -2.00000000      -2.00000000       0.00194291       0.00255241       0.00002200
O        3.13207341       3.09458078       5.87325752       24      -2.00000000      -2.00000000       0.00107193       0.00295105       0.00086252
O        5.66041657       8.98152649       5.88278385       24      -2.00000000      -2.00000000      -0.00259544       0.00381906       0.00299607
O        0.17661329       2.81610173       2.31241715       24      -2.00000000      -2.00000000      -0.00368166       0.00336317       0.00235239
O        0.17649429       2.81621366       5.85907149       24      -2.00000000      -2.00000000      -0.00366776       0.00334957      -0.00234578
O        5.66051519       8.98143423       2.28881047       24      -2.00000000      -2.00000000      -0.00260084       0.00382463      -0.00299763
O        2.92622468       5.90229978       1.65374887       32      -2.00000000      -2.00000000      -0.00137656       0.00436637       0.00078995
O        2.92631462       5.90222481       6.51779720       32      -2.00000000      -2.00000000      -0.00138444       0.00437281      -0.00078879
O       -0.00710980       0.01283201       6.52020251       32      -2.00000000      -2.00000000      -0.00162557       0.00288798      -0.00024030
O       -0.00719972       0.01275714       1.65133420       32      -2.00000000      -2.00000000      -0.00161596       0.00289602       0.00024427
O        2.90093622       0.02598656       1.86865720       36      -2.00000000      -2.00000000      -0.00762832       0.00586078      -0.00028668
O        2.90107443       0.02585528       6.30289009       36      -2.00000000      -2.00000000      -0.00764121       0.00587262       0.00028801
O        0.00668349       5.88415564       6.30124221       36      -2.00000000      -2.00000000       0.00203003       0.00025702      -0.00008106
O        0.00654262       5.88402232       1.87029311       36      -2.00000000      -2.00000000       0.00204228       0.00026884       0.00008489
40
Lattice="5.870077894645667 0.0 0.0 -0.007902649232599661 11.765275174053132 0.0 0.002895068861282424 9.321483958605224e-05 8.172355995894165" Properties=species:S:1:pos:R:3:spacegroup_kinds:I:1:field_charges:R:1:initial_charges:R:1:forces:R:3 spacegroup="P b a m" unit_cell=conventional occupancy="_JSON {\"0\": {\"Pb\": 1.0}, \"1\": {\"Pb\": 1.0}, \"2\": {\"Pb\": 1.0}, \"3\": {\"Pb\": 1.0}, \"4\": {\"Pb\": 1.0}, \"5\": {\"Pb\": 1.0}, \"6\": {\"Pb\": 1.0}, \"7\": {\"Pb\": 1.0}, \"8\": {\"Zr\": 1.0}, \"9\": {\"Zr\": 1.0}, \"10\": {\"Zr\": 1.0}, \"11\": {\"Zr\": 1.0}, \"12\": {\"Zr\": 1.0}, \"13\": {\"Zr\": 1.0}, \"14\": {\"Zr\": 1.0}, \"15\": {\"Zr\": 1.0}, \"16\": {\"O\": 1.0}, \"17\": {\"O\": 1.0}, \"18\": {\"O\": 1.0}, \"19\": {\"O\": 1.0}, \"20\": {\"O\": 1.0}, \"21\": {\"O\": 1.0}, \"22\": {\"O\": 1.0}, \"23\": {\"O\": 1.0}, \"24\": {\"O\": 1.0}, \"25\": {\"O\": 1.0}, \"26\": {\"O\": 1.0}, \"27\": {\"O\": 1.0}, \"28\": {\"O\": 1.0}, \"29\": {\"O\": 1.0}, \"30\": {\"O\": 1.0}, \"31\": {\"O\": 1.0}, \"32\": {\"O\": 1.0}, \"33\": {\"O\": 1.0}, \"34\": {\"O\": 1.0}, \"35\": {\"O\": 1.0}, \"36\": {\"O\": 1.0}, \"37\": {\"O\": 1.0}, \"38\": {\"O\": 1.0}, \"39\": {\"O\": 1.0}}" neb_image=2 energy=-39205.78184847678 polarization_c_per_m2="_JSON [0.023142062133164918, -0.022417154173297326, -0.003861297484378776]" pbc="T T T"
Pb       1.19780026       1.39658274      -0.02988569        0       2.00000000       2.00000000       0.00018588       0.00045428       0.00442373
Pb       4.70318472      10.26309008       0.02527526        0       2.00000000       2.00000000      -0.00027038       0.00214389      -0.00101601
Pb       1.77091203       7.29699685       0.02481281        0       2.00000000       2.00000000      -0.00058706       0.00099753      -0.00144813
Pb       4.11803210       4.38576935      -0.03298323        0       2.00000000       2.00000000      -0.00019758       0.00161964       0.00410787
Pb       1.21633604       1.48543488       4.07264834        4       2.00000000       2.00000000       0.00125513       0.00138712       0.00333514
Pb       4.62717559      10.22624982       4.09270804        4       2.00000000       2.00000000       0.00078228       0.00079098       0.00031426
Pb       1.73706948       7.35518529       4.09311631        4       2.00000000       2.00000000      -0.00105327       0.00097467       0.00029007
Pb       4.19393402       4.33110568       4.07407398        4       2.00000000       2.00000000      -0.00012502       0.00168139       0.00229255
Zr       4.35630114       1.45135183       2.03176984        8       4.00000000       4.00000000       0.00024681       0.00031350       0.00090979
Zr       1.50938818      10.28394898       6.12860042        8       4.00000000       4.00000000       0.00058649       0.00067201       0.00022896
Zr       1.51294857      10.29014398       2.04744582        8       4.00000000       4.00000000      -0.00001228      -0.00000122      -0.00006320
Zr       4.35378703       1.44483718       6.13288191        8       4.00000000       4.00000000       0.00060106       0.00089240       0.00065274
Zr       4.46161520       7.33083454       6.13810571        8       4.00000000       4.00000000      -0.00022352       0.00026677      -0.00007933
Zr       1.43317731       4.40052641       2.04113625        8       4.00000000       4.00000000      -0.00032348       0.00039295       0.00048633
Zr       1.42988518       4.40648622       6.12448962        8       4.00000000       4.00000000      -0.00009643       0.00014710       0.00069762
Zr       4.46536664       7.32432366       2.03888678        8       4.00000000       4.00000000      -0.00072366       0.00065695       0.00000408
O        4.52092005       1.87541413      -0.00156565       16      -2.00000000      -2.00000000       0.00215743       0.00063720       0.00016023
O        1.28656770       9.93868483       0.00148874       16      -2.00000000      -2.00000000       0.00043054      -0.00126066      -0.00027460
O        4.25641421       7.74392418       0.00176354       16      -2.00000000      -2.00000000      -0.00075270      -0.00002096      -0.00024831
O        1.62919216       4.04057517      -0.00128710       16      -2.00000000      -2.00000000      -0.00112938      -0.00092670       0.00004046
O        4.67739688       1.11582210       4.08690994       20      -2.00000000      -2.00000000       0.00069952      -0.00138326      -0.00016943
O        1.14335665      10.66726950       4.08610661       20      -2.00000000      -2.00000000       0.00070118       0.00068985      -0.00018220
O        4.11571990       7.01192856       4.08618488       20      -2.00000000      -2.00000000      -0.00119522      -0.00154127      -0.00015000
O        1.77281829       4.79186535       4.08714085       20      -2.00000000      -2.00000000       0.00014777       0.00003255      -0.00019483
O        3.11003265       3.07516825       2.31305485       24      -2.00000000      -2.00000000       0.00340616       0.00279817      -0.00212524
O        2.76679978       8.71671435       5.86562157       24      -2.00000000      -2.00000000      -0.00113220      -0.00133494      -0.00052626
O        2.73126499       8.68242562       2.29294564       24      -2.00000000      -2.00000000       0.00075144       0.00087505       0.00043095
O        3.15595655       3.11733830       5.88627806       24      -2.00000000      -2.00000000      -0.00261862      -0.00243262      -0.00180460
O        5.67260949       8.97169022       5.88118277       24      -2.00000000      -2.00000000      -0.00009238       0.00006492      -0.00117545
O        0.14530085       2.84690634       2.32760332       24      -2.00000000      -2.00000000       0.00424877      -0.00420770      -0.00081971
O        0.19057529       2.80410074       5.86651257       24      -2.00000000      -2.00000000      -0.00196819       0.00180785      -0.00270707
O        5.63736448       9.00465887       2.27450208       24      -2.00000000      -2.00000000       0.00167642      -0.00204187       0.00118792
O        2.94707065       5.89138668       1.65733633       32      -2.00000000      -2.00000000      -0.00238195       0.00117043      -0.00128298
O        2.91407293       5.91903262       6.51542097       32      -2.00000000      -2.00000000       0.00053388      -0.00114798       0.00022536
O       -0.02386681       0.00521343       6.52110774       32      -2.00000000      -2.00000000       0.00186086       0.00070845      -0.00002458
O        0.00992372       0.03352187       1.65616820       32      -2.00000000      -2.00000000      -0.00269246      -0.00314438      -0.00209637
O        2.91614946       0.00920551       1.86974733       36      -2.00000000      -2.00000000      -0.00236247       0.00259451      -0.00243526
O        2.86498063       0.05777990       6.30279232       36      -2.00000000      -2.00000000       0.00345306      -0.00256356       0.00061642
O       -0.00689042       5.86688540       6.30348555       36      -2.00000000      -2.00000000       0.00045731       0.00095498      -0.00069512
O        0.04483192       5.91606482       1.87411241       36      -2.00000000      -2.00000000      -0.00424374      -0.00371804      -0.00088581
40
Lattice="5.872704100224702 0.0 0.0 -0.004522192736088635 11.7624321027675 0.0 0.005853071566832317 0.00022652187258109184 8.176881757315172" Properties=species:S:1:pos:R:3:spacegroup_kinds:I:1:field_charges:R:1:initial_charges:R:1:forces:R:3 spacegroup="P b a m" unit_cell=conventional occupancy="_JSON {\"0\": {\"Pb\": 1.0}, \"1\": {\"Pb\": 1.0}, \"2\": {\"Pb\": 1.0}, \"3\": {\"Pb\": 1.0}, \"4\": {\"Pb\": 1.0}, \"5\": {\"Pb\": 1.0}, \"6\": {\"Pb\": 1.0}, \"7\": {\"Pb\": 1.0}, \"8\": {\"Zr\": 1.0}, \"9\": {\"Zr\": 1.0}, \"10\": {\"Zr\": 1.0}, \"11\": {\"Zr\": 1.0}, \"12\": {\"Zr\": 1.0}, \"13\": {\"Zr\": 1.0}, \"14\": {\"Zr\": 1.0}, \"15\": {\"Zr\": 1.0}, \"16\": {\"O\": 1.0}, \"17\": {\"O\": 1.0}, \"18\": {\"O\": 1.0}, \"19\": {\"O\": 1.0}, \"20\": {\"O\": 1.0}, \"21\": {\"O\": 1.0}, \"22\": {\"O\": 1.0}, \"23\": {\"O\": 1.0}, \"24\": {\"O\": 1.0}, \"25\": {\"O\": 1.0}, \"26\": {\"O\": 1.0}, \"27\": {\"O\": 1.0}, \"28\": {\"O\": 1.0}, \"29\": {\"O\": 1.0}, \"30\": {\"O\": 1.0}, \"31\": {\"O\": 1.0}, \"32\": {\"O\": 1.0}, \"33\": {\"O\": 1.0}, \"34\": {\"O\": 1.0}, \"35\": {\"O\": 1.0}, \"36\": {\"O\": 1.0}, \"37\": {\"O\": 1.0}, \"38\": {\"O\": 1.0}, \"39\": {\"O\": 1.0}}" neb_image=3 energy=-39205.77491175824 polarization_c_per_m2="_JSON [0.021945561461990736, -0.03764302508568392, -0.020578939188288146]" pbc="T T T"
Pb       1.19767813       1.38968176      -0.06523544        0       2.00000000       2.00000000      -0.00019154       0.00120329       0.01764432
Pb       4.71073878      10.23980290       0.03032414        0       2.00000000       2.00000000      -0.00161276       0.01375501       0.00966728
Pb       1.77982978       7.28731476       0.03371008        0       2.00000000       2.00000000      -0.00356262       0.00822302       0.00303447
Pb       4.12271373       4.37208986      -0.06567650        0       2.00000000       2.00000000      -0.00109489       0.01277067       0.01295677
Pb       1.20635949       1.47379887       4.04671671        4       2.00000000       2.00000000       0.00632309       0.01261133       0.02251237
Pb       4.62597726      10.21789740       4.09083508        4       2.00000000       2.00000000       0.00425466       0.00735955       0.00647504
Pb       1.75010831       7.34383780       4.09117512        4       2.00000000       2.00000000      -0.00797581       0.00640565       0.00664047
Pb       4.19940571       4.31340359       4.05717747        4       2.00000000       2.00000000      -0.00080007       0.01208292       0.00921411
Zr       4.35664249       1.44753002       2.02496076        8       4.00000000       4.00000000       0.00215022       0.00318063       0.00450748
Zr       1.51018051      10.27555347       6.12948531        8       4.00000000       4.00000000       0.00164288       0.00249810       0.00271134
Zr       1.51693144      10.28685475       2.04887245        8       4.00000000       4.00000000       0.00083510       0.00180212       0.00138599
Zr       4.35318641       1.43684746       6.13122222        8       4.00000000       4.00000000       0.00202369       0.00385286       0.00304894
Zr       4.47064383       7.32648307       6.14156246        8       4.00000000       4.00000000      -0.00245330       0.00383388       0.00078144
Zr       1.43852260       4.39651162       2.03827369        8       4.00000000       4.00000000      -0.00055256       0.00091903       0.00165564
Zr       1.43539336       4.40377928       6.12204224        8       4.00000000       4.00000000      -0.00079957       0.00276302       0.00312748
Zr       4.47671296       7.31726803       2.03963958        8       4.00000000       4.00000000      -0.00321539       0.00276192       0.00148795
O        4.50436169       1.86948613      -0.00270416       16      -2.00000000      -2.00000000       0.01445718       0.00463371       0.00004235
O        1.28519333       9.94751109       0.00375640       16      -2.00000000      -2.00000000       0.00327489      -0.00899453      -0.00119636
O        4.26811743       7.74247742       0.00374281       16      -2.00000000      -2.00000000      -0.00300256      -0.00010008      -0.00069307
O        1.64164329       4.04726690      -0.00139951       16      -2.00000000      -2.00000000      -0.00827209      -0.00716999      -0.00066660
O        4.67475930       1.12543918       4.09059892       20      -2.00000000      -2.00000000       0.00464265      -0.01390835      -0.00118359
O        1.14170004      10.65672957       4.09002650       20      -2.00000000      -2.00000000       0.00358457       0.00388298      -0.00154431
O        4.13139475       7.02632191       4.08977968       20      -2.00000000      -2.00000000      -0.00819393      -0.01017901      -0.00116492
O        1.77543453       4.79291870       4.09106587       20      -2.00000000      -2.00000000       0.00141312       0.00236514      -0.00115088
O        3.08299675       3.04969337       2.33433922       24      -2.00000000      -2.00000000       0.00960124       0.00604251      -0.00575343
O        2.77700875       8.72081667       5.87760606       24      -2.00000000      -2.00000000      -0.00115382      -0.00268037      -0.00546698
O        2.72927319       8.67259935       2.28885801       24      -2.00000000      -2.00000000      -0.00536389      -0.00484777      -0.00270532
O        3.17856621       3.13320621       5.90163810       24      -2.00000000      -2.00000000      -0.00771719      -0.00747906      -0.00880400
O        5.67483365       8.97475936       5.89831279       24      -2.00000000      -2.00000000       0.00602310      -0.00592133      -0.01213403
O        0.10907422       2.88398621       2.33779978       24      -2.00000000      -2.00000000       0.01494149      -0.01523192       0.00237221
O        0.20557251       2.79316595       5.88967163       24      -2.00000000      -2.00000000      -0.00322804       0.00303852      -0.01846228
O        5.62834191       9.02091168       2.26476508       24      -2.00000000      -2.00000000       0.00077439      -0.00357133       0.00215990
O        2.97300835       5.87875683       1.66895077       32      -2.00000000      -2.00000000      -0.00249943      -0.00309561      -0.01058243
O        2.92100760       5.92293194       6.51819890       32      -2.00000000      -2.00000000      -0.00167315      -0.00342276       0.00197789
O       -0.03294708       0.00357358       6.52469268       32      -2.00000000      -2.00000000       0.00527688      -0.00023582       0.00042607
O        0.03436630       0.06189688       1.67562221       32      -2.00000000      -2.00000000      -0.01009456      -0.01484294      -0.01722254
O        2.93701886      -0.01250592       1.89183411       36      -2.00000000      -2.00000000      -0.00158228       0.00342028      -0.01801544
O        2.84352306       0.07478295       6.30174619       36      -2.00000000      -2.00000000       0.01061828      -0.00634744       0.00115777
O        0.00067400       5.86423050       6.31329920       36      -2.00000000      -2.00000000      -0.00623012      -0.00249572      -0.00429997
O        0.08497604       5.94779064       1.88282120       36      -2.00000000      -2.00000000      -0.01056786      -0.00888210      -0.00394114
40