40
Lattice="5.871972 0.0 0.0 0.0 11.774171 0.0 0.0 0.0 8.178836" Properties=species:S:1:pos:R:3:spacegroup_kinds:I:1:field_charges:R:1:initial_charges:R:1:forces:R:3 spacegroup="P b a m" unit_cell=conventional occupancy="_JSON {\"0\": {\"Pb\": 1.0}, \"1\": {\"Pb\": 1.0}, \"2\": {\"Pb\": 1.0}, \"3\": {\"Pb\": 1.0}, \"4\": {\"Pb\": 1.0}, \"5\": {\"Pb\": 1.0}, \"6\": {\"Pb\": 1.0}, \"7\": {\"Pb\": 1.0}, \"8\": {\"Zr\": 1.0}, \"9\": {\"Zr\": 1.0}, \"10\": {\"Zr\": 1.0}, \"11\": {\"Zr\": 1.0}, \"12\": {\"Zr\": 1.0}, \"13\": {\"Zr\": 1.0}, \"14\": {\"Zr\": 1.0}, \"15\": {\"Zr\": 1.0}, \"16\": {\"O\": 1.0}, \"17\": {\"O\": 1.0}, \"18\": {\"O\": 1.0}, \"19\": {\"O\": 1.0}, \"20\": {\"O\": 1.0}, \"21\": {\"O\": 1.0}, \"22\": {\"O\": 1.0}, \"23\": {\"O\": 1.0}, \"24\": {\"O\": 1.0}, \"25\": {\"O\": 1.0}, \"26\": {\"O\": 1.0}, \"27\": {\"O\": 1.0}, \"28\": {\"O\": 1.0}, \"29\": {\"O\": 1.0}, \"30\": {\"O\": 1.0}, \"31\": {\"O\": 1.0}, \"32\": {\"O\": 1.0}, \"33\": {\"O\": 1.0}, \"34\": {\"O\": 1.0}, \"35\": {\"O\": 1.0}, \"36\": {\"O\": 1.0}, \"37\": {\"O\": 1.0}, \"38\": {\"O\": 1.0}, \"39\": {\"O\": 1.0}}" neb_image=0 energy=-39205.764739708866 polarization_c_per_m2="_JSON [-0.0012611573750599988, 0.0349032942069816, -1.3526432333244794e-15]" pbc="T T T"
Pb       1.17373646       1.45287285      -0.00000000        0       2.00000000       2.00000000       0.01811033      -0.02203254      -0.00000000
Pb       4.69823554      10.32129815      -0.00000000        0       2.00000000       2.00000000       0.02886545      -0.02506414      -0.00000000
Pb       1.76224954       7.33995835      -0.00000000        0       2.00000000       2.00000000       0.02886545      -0.02203254      -0.00000000
Pb       4.10972246       4.43421265      -0.00000000        0       2.00000000       2.00000000       0.01811033      -0.02506414      -0.00000000
Pb       1.22777814       1.51267559       4.08941800        4       2.00000000       2.00000000       0.01833476      -0.01928032       0.00000000
Pb       4.64419386      10.26149541       4.08941800        4       2.00000000       2.00000000       0.02864101      -0.02781637       0.00000000
Pb       1.70820786       7.39976109       4.08941800        4       2.00000000       2.00000000       0.02864101      -0.01928032       0.00000000
Pb       4.16376414       4.37440991       4.08941800        4       2.00000000       2.00000000       0.01833476      -0.02781637       0.00000000
Zr       4.35630128       1.46381254       2.04209901        8       4.00000000       4.00000000       0.04074979      -0.05115421       0.00128299
Zr       1.51567072      10.31035846       6.13673699        8       4.00000000       4.00000000       0.05320176      -0.04303916      -0.00128299
Zr       1.51567072      10.31035846       2.04209901        8       4.00000000       4.00000000       0.05320176      -0.04303916       0.00128299
Zr       4.35630128       1.46381254       6.13673699        8       4.00000000       4.00000000       0.04074979      -0.05115421      -0.00128299
Zr       4.45165672       7.35089804       6.13673699        8       4.00000000       4.00000000       0.05320176      -0.05115421      -0.00128299
Zr       1.42031528       4.42327296       2.04209901        8       4.00000000       4.00000000       0.04074979      -0.04303916       0.00128299
Zr       1.42031528       4.42327296       6.13673699        8       4.00000000       4.00000000       0.04074979      -0.04303916      -0.00128299
Zr       4.45165672       7.35089804       2.04209901        8       4.00000000       4.00000000       0.05320176      -0.05115421       0.00128299
O        4.55672239       1.85661981      -0.00000000       16      -2.00000000      -2.00000000      -0.01967453       0.01834648       0.00000000
O        1.31524961       9.91755119      -0.00000000       16      -2.00000000      -2.00000000      -0.02730124       0.02875020       0.00000000
O        4.25123561       7.74370531      -0.00000000       16      -2.00000000      -2.00000000      -0.02730124       0.01834648       0.00000000
O        1.62073639       4.03046569      -0.00000000       16      -2.00000000      -2.00000000      -0.01967453       0.02875020       0.00000000
O        4.70256932       1.10550087       4.08941800       20      -2.00000000      -2.00000000      -0.01760133       0.03098644      -0.00000000
O        1.16940268      10.66867013       4.08941800       20      -2.00000000      -2.00000000      -0.02937445       0.01611025      -0.00000000
O        4.10538868       6.99258637       4.08941800       20      -2.00000000      -2.00000000      -0.02937445       0.03098644      -0.00000000
O        1.76658332       4.78158463       4.08941800       20      -2.00000000      -2.00000000      -0.01760133       0.01611025      -0.00000000
O        3.12999853       3.08379167       2.30409508       24      -2.00000000      -2.00000000      -0.03345472       0.03894801      -0.00556508
O        2.74197347       8.69037933       5.87474092       24      -2.00000000      -2.00000000      -0.01352106       0.00814867       0.00556508
O        2.74197347       8.69037933       2.30409508       24      -2.00000000      -2.00000000      -0.01352106       0.00814867      -0.00556508
O        3.12999853       3.08379167       5.87474092       24      -2.00000000      -2.00000000      -0.03345472       0.03894801       0.00556508
O        5.67795947       8.97087717       5.87474092       24      -2.00000000      -2.00000000      -0.01352106       0.03894801       0.00556508
O        0.19401253       2.80329383       2.30409508       24      -2.00000000      -2.00000000      -0.03345472       0.00814867      -0.00556508
O        0.19401253       2.80329383       5.87474092       24      -2.00000000      -2.00000000      -0.03345472       0.00814867       0.00556508
O        5.67795947       8.97087717       2.30409508       24      -2.00000000      -2.00000000      -0.01352106       0.03894801      -0.00556508
O        2.93598600       5.88708550       1.65175084       32      -2.00000000      -2.00000000      -0.02348789       0.02354834       0.00096873
O        2.93598600       5.88708550       6.52708516       32      -2.00000000      -2.00000000      -0.02348789       0.02354834      -0.00096873
O        0.00000000       0.00000000       6.52708516       32      -2.00000000      -2.00000000      -0.02348789       0.02354834      -0.00096873
O       -0.00000000       0.00000000       1.65175084       32      -2.00000000      -2.00000000      -0.02348789       0.02354834       0.00096873
O        2.93598600       0.00000000       1.87160782       36      -2.00000000      -2.00000000      -0.02348789       0.02354834       0.00119428
O        2.93598600       0.00000000       6.30722818       36      -2.00000000      -2.00000000      -0.02348789       0.02354834      -0.00119428
O        0.00000000       5.88708550       6.30722818       36      -2.00000000      -2.00000000      -0.02348789       0.02354834      -0.00119428
O        0.00000000       5.88708550       1.87160782       36      -2.00000000      -2.00000000      -0.02348789       0.02354834       0.00119428
40
Lattice="5.869493098326058 0.0 0.0 -0.004710227699194643 11.765891481507659 0.0 -1.9098068581136147e-06 -4.0016523659828293e-08 8.171546216442637" Properties=species:S:1:pos:R:3:spacegroup_kinds:I:1:field_charges:R:1:initial_charges:R:1:forces:R:3 spacegroup="P b a m" unit_cell=conventional occupancy="_JSON {\"0\": {\"Pb\": 1.0}, \"1\": {\"Pb\": 1.0}, \"2\": {\"Pb\": 1.0}, \"3\": {\"Pb\": 1.0}, \"4\": {\"Pb\": 1.0}, \"5\": {\"Pb\": 1.0}, \"6\": {\"Pb\": 1.0}, \"7\": {\"Pb\": 1.0}, \"8\": {\"Zr\": 1.0}, \"9\": {\"Zr\": 1.0}, \"10\": {\"Zr\": 1.0}, \"11\": {\"Zr\": 1.0}, \"12\": {\"Zr\": 1.0}, \"13\": {\"Zr\": 1.0}, \"14\": {\"Zr\": 1.0}, \"15\": {\"Zr\": 1.0}, \"16\": {\"O\": 1.0}, \"17\": {\"O\": 1.0}, \"18\": {\"O\": 1.0}, \"19\": {\"O\": 1.0}, \"20\": {\"O\": 1.0}, \"21\": {\"O\": 1.0}, \"22\": {\"O\": 1.0}, \"23\": {\"O\": 1.0}, \"24\": {\"O\": 1.0}, \"25\": {\"O\": 1.0}, \"26\": {\"O\": 1.0}, \"27\": {\"O\": 1.0}, \"28\": {\"O\": 1.0}, \"29\": {\"O\": 1.0}, \"30\": {\"O\": 1.0}, \"31\": {\"O\": 1.0}, \"32\": {\"O\": 1.0}, \"33\": {\"O\": 1.0}, \"34\": {\"O\": 1.0}, \"35\": {\"O\": 1.0}, \"36\": {\"O\": 1.0}, \"37\": {\"O\": 1.0}, \"38\": {\"O\": 1.0}, \"39\": {\"O\": 1.0}}" neb_image=1 energy=-39205.78198458152 polarization_c_per_m2="_JSON [0.0201705443926478, -0.006957652454083767, 4.131252343051127e-06]" pbc="T T T"
Pb       1.19169091       1.41349150       0.00002156        0       2.00000000       2.00000000       0.00429178      -0.00865773      -0.00000297
Pb       4.70486644      10.27859204      -0.00001611        0       2.00000000       2.00000000       0.00287249      -0.00800173      -0.00000101
Pb       1.76980370       7.30691364      -0.00001564        0       2.00000000       2.00000000       0.00253544      -0.00630004      -0.00000063
Pb       4.11710656       4.39897643       0.00002387        0       2.00000000       2.00000000       0.00245681      -0.00726063      -0.00000351
Pb       1.22264030       1.49273698       4.08578407        4       2.00000000       2.00000000      -0.00090846      -0.00426653      -0.00000360
Pb       4.63393413      10.23416337       4.08576990        4       2.00000000       2.00000000      -0.00094715      -0.00454796      -0.00000117
Pb       1.72843007       7.36613576       4.08576969        4       2.00000000       2.00000000       0.00539981      -0.00641626      -0.00000111
Pb       4.18538831       4.34273323       4.08578285        4       2.00000000       2.00000000       0.00567257      -0.00645610      -0.00000262
Zr       4.35585163       1.45181962       2.03683445        8       4.00000000       4.00000000       0.00044303      -0.00247554      -0.00077906
Zr       1.51441443      10.29146860       6.12768684        8       4.00000000       4.00000000       0.00078980      -0.00262894      -0.00080884
Zr       1.51441181      10.29146441       2.04385731        8       4.00000000       4.00000000       0.00079006      -0.00262868       0.00080805
Zr       4.35585304       1.45182413       6.13471773        8       4.00000000       4.00000000       0.00044332      -0.00247565       0.00077716
Zr       4.45928382       7.33214106       6.13419606        8       4.00000000       4.00000000       0.00281130      -0.00306910       0.00066241
Zr       1.42812599       4.40712665       2.04319606        8       4.00000000       4.00000000       0.00229865      -0.00294467       0.00065809
Zr       1.42812795       4.40712285       6.12835552        8       4.00000000       4.00000000       0.00229883      -0.00294498      -0.00065924
Zr       4.45928129       7.33214544       2.03734755        8       4.00000000       4.00000000       0.00281164      -0.00306904      -0.00066255
O        4.53373985       1.87308124       0.00000108       16      -2.00000000      -2.00000000      -0.00459434       0.00400823      -0.00000016
O        1.29468318       9.93157618      -0.00000111       16      -2.00000000      -2.00000000      -0.00362308       0.00474226       0.00000017
O        4.25040419       7.74399930      -0.00000125       16      -2.00000000      -2.00000000       0.00092184       0.00129452       0.00000033
O        1.62323652       4.03697877       0.00000088       16      -2.00000000      -2.00000000       0.00108797       0.00211359       0.00000009
O        4.68372737       1.11445009       4.08577253       20      -2.00000000      -2.00000000      -0.00370699       0.00220470       0.00000010
O        1.14952379      10.66883700       4.08577295       20      -2.00000000      -2.00000000      -0.00341179       0.00173648       0.00000030
O        4.10823358       7.00357901       4.08577282       20      -2.00000000      -2.00000000       0.00166948       0.00359041       0.00000033
O        1.76969662       4.78880941       4.08577225       20      -2.00000000      -2.00000000       0.00130314       0.00238428       0.00000023
O        3.13214355       3.09464516       2.29825308       24      -2.00000000      -2.00000000       0.00106029       0.00294051      -0.00085549
O        2.74589483       8.69552285       5.86942439       24      -2.00000000      -2.00000000       0.00194301       0.00255197      -0.00002152
O        2.74591655       8.69554403       2.30212929       24      -2.00000000      -2.00000000       0.00194408       0.00255219       0.00002409
O        3.13210941       3.09461432       5.87327297       24      -2.00000000      -2.00000000       0.00106595       0.00294487       0.00085987
O        5.66043807       8.98151045       5.88278113       24      -2.00000000      -2.00000000      -0.00259425       0.00381694       0.00299066
O        0.17655179       2.81616396       2.31245621       24      -2.00000000      -2.00000000      -0.00367201       0.00335242       0.00234403
O        0.17651803       2.81619523       5.85907347       24      -2.00000000      -2.00000000      -0.00366643       0.00334696      -0.00234156
O        5.66045976       8.98148955       2.28877466       24      -2.00000000      -2.00000000      -0.00259301       0.00381610      -0.00298902
O        2.92627377       5.90226680       1.65374848       32      -2.00000000      -2.00000000      -0.00138022       0.00436513       0.00078818
O        2.92629581       5.90224843       6.51779597       32      -2.00000000      -2.00000000      -0.00138141       0.00436626      -0.00078708
O       -0.00712894       0.01282227       6.52020296       32      -2.00000000      -2.00000000      -0.00162276       0.00288535      -0.00023978
O       -0.00715205       0.01280285       1.65133877       32      -2.00000000      -2.00000000      -0.00162005       0.00288787       0.00024281
O        2.90098878       0.02593476       1.86865387       36      -2.00000000      -2.00000000      -0.00762517       0.00585938      -0.00028707
O        2.90102350       0.02590175       6.30289114       36      -2.00000000      -2.00000000      -0.00762784       0.00586185       0.00028822
O        0.00665386       5.88412521       6.30124533       36      -2.00000000      -2.00000000       0.00203085       0.00025947      -0.00008119
O        0.00661897       5.88409172       1.87029590       36      -2.00000000      -2.00000000       0.00203281       0.00026182       0.00008405
40
Lattice="5.870020043412281 0.0 0.0 -0.007856632913074903 11.76525378612059 0.0 0.002890375064936774 0.00010285998641678739 8.172351965909039" Properties=species:S:1:pos:R:3:spacegroup_kinds:I:1:field_charges:R:1:initial_charges:R:1:forces:R:3 spacegroup="P b a m" unit_cell=conventional occupancy="_JSON {\"0\": {\"Pb\": 1.0}, \"1\": {\"Pb\": 1.0}, \"2\": {\"Pb\": 1.0}, \"3\": {\"Pb\": 1.0}, \"4\": {\"Pb\": 1.0}, \"5\": {\"Pb\": 1.0}, \"6\": {\"Pb\": 1.0}, \"7\": {\"Pb\": 1.0}, \"8\": {\"Zr\": 1.0}, \"9\": {\"Zr\": 1.0}, \"10\": {\"Zr\": 1.0}, \"11\": {\"Zr\": 1.0}, \"12\": {\"Zr\": 1.0}, \"13\": {\"Zr\": 1.0}, \"14\": {\"Zr\": 1.0}, \"15\": {\"Zr\": 1.0}, \"16\": {\"O\": 1.0}, \"17\": {\"O\": 1.0}, \"18\": {\"O\": 1.0}, \"19\": {\"O\": 1.0}, \"20\": {\"O\": 1.0}, \"21\": {\"O\": 1.0}, \"22\": {\"O\": 1.0}, \"23\": {\"O\": 1.0}, \"24\": {\"O\": 1.0}, \"25\": {\"O\": 1.0}, \"26\": {\"O\": 1.0}, \"27\": {\"O\": 1.0}, \"28\": {\"O\": 1.0}, \"29\": {\"O\": 1.0}, \"30\": {\"O\": 1.0}, \"31\": {\"O\": 1.0}, \"32\": {\"O\": 1.0}, \"33\": {\"O\": 1.0}, \"34\": {\"O\": 1.0}, \"35\": {\"O\": 1.0}, \"36\": {\"O\": 1.0}, \"37\": {\"O\": 1.0}, \"38\": {\"O\": 1.0}, \"39\": {\"O\": 1.0}}" neb_image=2 energy=-39205.78186356719 polarization_c_per_m2="_JSON [0.02318274275767984, -0.02207120869444949, -0.00355762922980296]" pbc="T T T"
Pb       1.19766532       1.39722611      -0.02998918        0       2.00000000       2.00000000       0.00014062       0.00036453       0.00427184
Pb       4.70312424      10.26383795       0.02591638        0       2.00000000       2.00000000      -0.00024395       0.00188427      -0.00128208
Pb       1.77064376       7.29687196       0.02536205        0       2.00000000       2.00000000      -0.00047414       0.00090077      -0.00163023
Pb       4.11798786       4.38552918      -0.03309235        0       2.00000000       2.00000000      -0.00021013       0.00144758       0.00398997
Pb       1.21681979       1.48540792       4.07288135        4       2.00000000       2.00000000       0.00108919       0.00123034       0.00302948
Pb       4.62746858      10.22605134       4.09301250        4       2.00000000       2.00000000       0.00070528       0.00068215       0.00016988
Pb       1.73712258       7.35556350       4.09346860        4       2.00000000       2.00000000      -0.00093426       0.00085310       0.00011678
Pb       4.19396912       4.33180179       4.07418626        4       2.00000000       2.00000000      -0.00010330       0.00144395       0.00216738
Zr       4.35641173       1.45155656       2.03189568        8       4.00000000       4.00000000       0.00017234       0.00023751       0.00084225
Zr       1.50947422      10.28406303       6.12872665        8       4.00000000       4.00000000       0.00055356       0.00062641       0.00017192
Zr       1.51307782      10.29031227       2.04748571        8       4.00000000       4.00000000      -0.00005246      -0.00005343      -0.00009466
Zr       4.35380481       1.44494849       6.13282010        8       4.00000000       4.00000000       0.00055365       0.00082657       0.00062462
Zr       4.46141516       7.33091133       6.13823094        8       4.00000000       4.00000000      -0.00014878       0.00018490      -0.00011542
Zr       1.43315647       4.40047044       2.04115149        8       4.00000000       4.00000000      -0.00030736       0.00039549       0.00046880
Zr       1.42976115       4.40658379       6.12451969        8       4.00000000       4.00000000      -0.00005820       0.00008350       0.00065111
Zr       4.46521507       7.32429861       2.03893803        8       4.00000000       4.00000000      -0.00065290       0.00061682      -0.00003764
O        4.52120888       1.87548247      -0.00159975       16      -2.00000000      -2.00000000       0.00196561       0.00057483       0.00016658
O        1.28688229       9.93846060       0.00147684       16      -2.00000000      -2.00000000       0.00029353      -0.00112975      -0.00026170
O        4.25606923       7.74384828       0.00176627       16      -2.00000000      -2.00000000      -0.00063110      -0.00001811      -0.00024654
O        1.62892183       4.04056390      -0.00133083       16      -2.00000000      -2.00000000      -0.00097158      -0.00083464       0.00005761
O        4.67753098       1.11622378       4.08690129       20      -2.00000000      -2.00000000       0.00060411      -0.00121974      -0.00015240
O        1.14359792      10.66785838       4.08607078       20      -2.00000000      -2.00000000       0.00062632       0.00059134      -0.00015384
O        4.11559983       7.01109155       4.08616321       20      -2.00000000      -2.00000000      -0.00108878      -0.00130946      -0.00013242
O        1.77279946       4.79124722       4.08712676       20      -2.00000000      -2.00000000       0.00017637       0.00005449      -0.00017407
O        3.11069304       3.07576169       2.31234476       24      -2.00000000      -2.00000000       0.00328481       0.00273631      -0.00201229
O        2.76791445       8.71779976       5.86457667       24      -2.00000000      -2.00000000      -0.00129651      -0.00147003      -0.00028542
O        2.73154637       8.68274448       2.29348539       24      -2.00000000      -2.00000000       0.00086398       0.00098059       0.00041125
O        3.15670395       3.11813154       5.88692530       24      -2.00000000      -2.00000000      -0.00258090      -0.00241398      -0.00173304
O        5.67387696       8.97040550       5.88020696       24      -2.00000000      -2.00000000      -0.00037164       0.00032785      -0.00091953
O        0.14617128       2.84601044       2.32702409       24      -2.00000000      -2.00000000       0.00403010      -0.00397362      -0.00081178
O        0.19152901       2.80308404       5.86705625       24      -2.00000000      -2.00000000      -0.00201711       0.00187595      -0.00253580
O        5.63778183       9.00411708       2.27488119       24      -2.00000000      -2.00000000       0.00168248      -0.00200144       0.00119018
O        2.94624410       5.89191869       1.65733088       32      -2.00000000      -2.00000000      -0.00229753       0.00120154      -0.00115021
O        2.91269867       5.92000687       6.51517447       32      -2.00000000      -2.00000000       0.00075943      -0.00123788       0.00024924
O       -0.02475759       0.00428546       6.52117398       32      -2.00000000      -2.00000000       0.00187238       0.00081015      -0.00003497
O        0.00934567       0.03279732       1.65583171       32      -2.00000000      -2.00000000      -0.00260956      -0.00294482      -0.00184254
O        2.91600118       0.00953807       1.86948656       36      -2.00000000      -2.00000000      -0.00247911       0.00264208      -0.00219405
O        2.86421577       0.05871107       6.30268913       36      -2.00000000      -2.00000000       0.00339863      -0.00260314       0.00065099
O       -0.00849404       5.86543227       6.30334275       36      -2.00000000      -2.00000000       0.00080583       0.00120641      -0.00064301
O        0.04398860       5.91525887       1.87401267       36      -2.00000000      -2.00000000      -0.00404895      -0.00356936      -0.00078623
40
Lattice="5.8722917735994065 0.0 0.0 -0.00412633774050854 11.762257398795503 0.0 0.005768600841279124 0.00021161047238956948 8.176697662896538" Properties=species:S:1:pos:R:3:spacegroup_kinds:I:1:field_charges:R:1:initial_charges:R:1:forces:R:3 spacegroup="P b a m" unit_cell=conventional occupancy="_JSON {\"0\": {\"Pb\": 1.0}, \"1\": {\"Pb\": 1.0}, \"2\": {\"Pb\": 1.0}, \"3\": {\"Pb\": 1.0}, \"4\": {\"Pb\": 1.0}, \"5\": {\"Pb\": 1.0}, \"6\": {\"Pb\": 1.0}, \"7\": {\"Pb\": 1.0}, \"8\": {\"Zr\": 1.0}, \"9\": {\"Zr\": 1.0}, \"10\": {\"Zr\": 1.0}, \"11\": {\"Zr\": 1.0}, \"12\": {\"Zr\": 1.0}, \"13\": {\"Zr\": 1.0}, \"14\": {\"Zr\": 1.0}, \"15\": {\"Zr\": 1.0}, \"16\": {\"O\": 1.0}, \"17\": {\"O\": 1.0}, \"18\": {\"O\": 1.0}, \"19\": {\"O\": 1.0}, \"20\": {\"O\": 1.0}, \"21\": {\"O\": 1.0}, \"22\": {\"O\": 1.0}, \"23\": {\"O\": 1.0}, \"24\": {\"O\": 1.0}, \"25\": {\"O\": 1.0}, \"26\": {\"O\": 1.0}, \"27\": {\"O\": 1.0}, \"28\": {\"O\": 1.0}, \"29\": {\"O\": 1.0}, \"30\": {\"O\": 1.0}, \"31\": {\"O\": 1.0}, \"32\": {\"O\": 1.0}, \"33\": {\"O\": 1.0}, \"34\": {\"O\": 1.0}, \"35\": {\"O\": 1.0}, \"36\": {\"O\": 1.0}, \"37\": {\"O\": 1.0}, \"38\": {\"O\": 1.0}, \"39\": {\"O\": 1.0}}" neb_image=3 energy=-39205.77548866984 polarization_c_per_m2="_JSON [0.02197971457775728, -0.035655201552896316, -0.01874194190971719]" pbc="T T T"
Pb       1.19804291       1.39074498      -0.06532422        0       2.00000000       2.00000000      -0.00037989       0.00122914       0.01659235
Pb       4.71046211      10.24176774       0.03375678        0       2.00000000       2.00000000      -0.00160952       0.01266837       0.00805818
Pb       1.77899131       7.28827012       0.03664152        0       2.00000000       2.00000000      -0.00304917       0.00775568       0.00204943
Pb       4.12287773       4.37378318      -0.06609878        0       2.00000000       2.00000000      -0.00099525       0.01157350       0.01213653
Pb       1.20772563       1.47507049       4.04856420        4       2.00000000       2.00000000       0.00588944       0.01134896       0.02025846
Pb       4.62660598      10.21893042       4.09243646        4       2.00000000       2.00000000       0.00409056       0.00646876       0.00568761
Pb       1.74894211       7.34474958       4.09313130        4       2.00000000       2.00000000      -0.00727168       0.00569022       0.00547365
Pb       4.19885732       4.31526801       4.05769575        4       2.00000000       2.00000000      -0.00066466       0.01087764       0.00873119
Zr       4.35716824       1.44826988       2.02530472        8       4.00000000       4.00000000       0.00184810       0.00290244       0.00420996
Zr       1.51054666      10.27568580       6.12997576        8       4.00000000       4.00000000       0.00161423       0.00232694       0.00243130
Zr       1.51758922      10.28728851       2.04918426        8       4.00000000       4.00000000       0.00067471       0.00153794       0.00113008
Zr       4.35322275       1.43725365       6.13114918        8       4.00000000       4.00000000       0.00190645       0.00355328       0.00283440
Zr       4.46969333       7.32727363       6.14184275        8       4.00000000       4.00000000      -0.00214702       0.00339862       0.00058439
Zr       1.43852896       4.39633853       2.03821775        8       4.00000000       4.00000000      -0.00047174       0.00095131       0.00154957
Zr       1.43491406       4.40444462       6.12218840        8       4.00000000       4.00000000      -0.00071295       0.00247453       0.00292176
Zr       4.47608037       7.31740623       2.04016077        8       4.00000000       4.00000000      -0.00292290       0.00252268       0.00123844
O        4.50566825       1.86982769      -0.00283570       16      -2.00000000      -2.00000000       0.01346098       0.00421799       0.00010698
O        1.28666746       9.94631783       0.00373528       16      -2.00000000      -2.00000000       0.00264123      -0.00828148      -0.00113321
O        4.26710897       7.74233218       0.00383125       16      -2.00000000      -2.00000000      -0.00253552      -0.00023440      -0.00069713
O        1.64012449       4.04644798      -0.00161577       16      -2.00000000      -2.00000000      -0.00747795      -0.00649926      -0.00053922
O        4.67525520       1.12405216       4.09036961       20      -2.00000000      -2.00000000       0.00413508      -0.01228323      -0.00105516
O        1.14266082      10.65714879       4.08967917       20      -2.00000000      -2.00000000       0.00347404       0.00349406      -0.00138456
O        4.13033083       7.02446594       4.08952043       20      -2.00000000      -2.00000000      -0.00760968      -0.00896906      -0.00105893
O        1.77501304       4.79281207       4.09079999       20      -2.00000000      -2.00000000       0.00145246       0.00206853      -0.00100228
O        3.08257058       3.04885109       2.33410371       24      -2.00000000      -2.00000000       0.00940244       0.00613897      -0.00554058
O        2.77920178       8.72253558       5.87529259       24      -2.00000000      -2.00000000      -0.00156630      -0.00297442      -0.00438423
O        2.72704282       8.67018740       2.28822812       24      -2.00000000      -2.00000000      -0.00440866      -0.00386150      -0.00262970
O        3.17862555       3.13355473       5.90119630       24      -2.00000000      -2.00000000      -0.00748233      -0.00726120      -0.00804240
O        5.67786001       8.97163131       5.89572274       24      -2.00000000      -2.00000000       0.00508910      -0.00504624      -0.01105363
O        0.10985815       2.88311110       2.33804346       24      -2.00000000      -2.00000000       0.01438725      -0.01459980       0.00189093
O        0.20670240       2.79182553       5.88852220       24      -2.00000000      -2.00000000      -0.00345331       0.00327469      -0.01664507
O        5.62701178       9.02149634       2.26409629       24      -2.00000000      -2.00000000       0.00125029      -0.00381469       0.00245552
O        2.97347338       5.87731575       1.66767095       32      -2.00000000      -2.00000000      -0.00291498      -0.00222061      -0.00938197
O        2.91838045       5.92401974       6.51780307       32      -2.00000000      -2.00000000      -0.00100458      -0.00353710       0.00189272
O       -0.03366250       0.00221455       6.52452794       32      -2.00000000      -2.00000000       0.00507056      -0.00004418       0.00030362
O        0.03498291       0.06121923       1.67377960       32      -2.00000000      -2.00000000      -0.00993064      -0.01410712      -0.01544540
O        2.93965134      -0.01465848       1.89002095       36      -2.00000000      -2.00000000      -0.00256985       0.00415791      -0.01653035
O        2.84288523       0.07590861       6.30109102       36      -2.00000000      -2.00000000       0.01023288      -0.00634359       0.00146518
O       -0.00336437       5.86097517       6.31267557       36      -2.00000000      -2.00000000      -0.00506988      -0.00171980      -0.00416139
O        0.08497821       5.94788082       1.88207693       36      -2.00000000      -2.00000000      -0.01037134      -0.00883448      -0.00331705
40