40
Lattice="5.871972 0.0 0.0 0.0 11.774171 0.0 0.0 0.0 8.178836" Properties=species:S:1:pos:R:3:spacegroup_kinds:I:1:field_charges:R:1:initial_charges:R:1:forces:R:3 spacegroup="P b a m" unit_cell=conventional occupancy="_JSON {\"0\": {\"Pb\": 1.0}, \"1\": {\"Pb\": 1.0}, \"2\": {\"Pb\": 1.0}, \"3\": {\"Pb\": 1.0}, \"4\": {\"Pb\": 1.0}, \"5\": {\"Pb\": 1.0}, \"6\": {\"Pb\": 1.0}, \"7\": {\"Pb\": 1.0}, \"8\": {\"Zr\": 1.0}, \"9\": {\"Zr\": 1.0}, \"10\": {\"Zr\": 1.0}, \"11\": {\"Zr\": 1.0}, \"12\": {\"Zr\": 1.0}, \"13\": {\"Zr\": 1.0}, \"14\": {\"Zr\": 1.0}, \"15\": {\"Zr\": 1.0}, \"16\": {\"O\": 1.0}, \"17\": {\"O\": 1.0}, \"18\": {\"O\": 1.0}, \"19\": {\"O\": 1.0}, \"20\": {\"O\": 1.0}, \"21\": {\"O\": 1.0}, \"22\": {\"O\": 1.0}, \"23\": {\"O\": 1.0}, \"24\": {\"O\": 1.0}, \"25\": {\"O\": 1.0}, \"26\": {\"O\": 1.0}, \"27\": {\"O\": 1.0}, \"28\": {\"O\": 1.0}, \"29\": {\"O\": 1.0}, \"30\": {\"O\": 1.0}, \"31\": {\"O\": 1.0}, \"32\": {\"O\": 1.0}, \"33\": {\"O\": 1.0}, \"34\": {\"O\": 1.0}, \"35\": {\"O\": 1.0}, \"36\": {\"O\": 1.0}, \"37\": {\"O\": 1.0}, \"38\": {\"O\": 1.0}, \"39\": {\"O\": 1.0}}" neb_image=0 energy=-39205.764739708866 polarization_c_per_m2="_JSON [-0.0012611573750599988, 0.0349032942069816, -1.3526432333244794e-15]" pbc="T T T"
Pb       1.17373646       1.45287285      -0.00000000        0       2.00000000       2.00000000       0.01811033      -0.02203254      -0.00000000
Pb       4.69823554      10.32129815      -0.00000000        0       2.00000000       2.00000000       0.02886545      -0.02506414      -0.00000000
Pb       1.76224954       7.33995835      -0.00000000        0       2.00000000       2.00000000       0.02886545      -0.02203254      -0.00000000
Pb       4.10972246       4.43421265      -0.00000000        0       2.00000000       2.00000000       0.01811033      -0.02506414      -0.00000000
Pb       1.22777814       1.51267559       4.08941800        4       2.00000000       2.00000000       0.01833476      -0.01928032       0.00000000
Pb       4.64419386      10.26149541       4.08941800        4       2.00000000       2.00000000       0.02864101      -0.02781637       0.00000000
Pb       1.70820786       7.39976109       4.08941800        4       2.00000000       2.00000000       0.02864101      -0.01928032       0.00000000
Pb       4.16376414       4.37440991       4.08941800        4       2.00000000       2.00000000       0.01833476      -0.02781637       0.00000000
Zr       4.35630128       1.46381254       2.04209901        8       4.00000000       4.00000000       0.04074979      -0.05115421       0.00128299
Zr       1.51567072      10.31035846       6.13673699        8       4.00000000       4.00000000       0.05320176      -0.04303916      -0.00128299
Zr       1.51567072      10.31035846       2.04209901        8       4.00000000       4.00000000       0.05320176      -0.04303916       0.00128299
Zr       4.35630128       1.46381254       6.13673699        8       4.00000000       4.00000000       0.04074979      -0.05115421      -0.00128299
Zr       4.45165672       7.35089804       6.13673699        8       4.00000000       4.00000000       0.05320176      -0.05115421      -0.00128299
Zr       1.42031528       4.42327296       2.04209901        8       4.00000000       4.00000000       0.04074979      -0.04303916       0.00128299
Zr       1.42031528       4.42327296       6.13673699        8       4.00000000       4.00000000       0.04074979      -0.04303916      -0.00128299
Zr       4.45165672       7.35089804       2.04209901        8       4.00000000       4.00000000       0.05320176      -0.05115421       0.00128299
O        4.55672239       1.85661981      -0.00000000       16      -2.00000000      -2.00000000      -0.01967453       0.01834648       0.00000000
O        1.31524961       9.91755119      -0.00000000       16      -2.00000000      -2.00000000      -0.02730124       0.02875020       0.00000000
O        4.25123561       7.74370531      -0.00000000       16      -2.00000000      -2.00000000      -0.02730124       0.01834648       0.00000000
O        1.62073639       4.03046569      -0.00000000       16      -2.00000000      -2.00000000      -0.01967453       0.02875020       0.00000000
O        4.70256932       1.10550087       4.08941800       20      -2.00000000      -2.00000000      -0.01760133       0.03098644      -0.00000000
O        1.16940268      10.66867013       4.08941800       20      -2.00000000      -2.00000000      -0.02937445       0.01611025      -0.00000000
O        4.10538868       6.99258637       4.08941800       20      -2.00000000      -2.00000000      -0.02937445       0.03098644      -0.00000000
O        1.76658332       4.78158463       4.08941800       20      -2.00000000      -2.00000000      -0.01760133       0.01611025      -0.00000000
O        3.12999853       3.08379167       2.30409508       24      -2.00000000      -2.00000000      -0.03345472       0.03894801      -0.00556508
O        2.74197347       8.69037933       5.87474092       24      -2.00000000      -2.00000000      -0.01352106       0.00814867       0.00556508
O        2.74197347       8.69037933       2.30409508       24      -2.00000000      -2.00000000      -0.01352106       0.00814867      -0.00556508
O        3.12999853       3.08379167       5.87474092       24      -2.00000000      -2.00000000      -0.03345472       0.03894801       0.00556508
O        5.67795947       8.97087717       5.87474092       24      -2.00000000      -2.00000000      -0.01352106       0.03894801       0.00556508
O        0.19401253       2.80329383       2.30409508       24      -2.00000000      -2.00000000      -0.03345472       0.00814867      -0.00556508
O        0.19401253       2.80329383       5.87474092       24      -2.00000000      -2.00000000      -0.03345472       0.00814867       0.00556508
O        5.67795947       8.97087717       2.30409508       24      -2.00000000      -2.00000000      -0.01352106       0.03894801      -0.00556508
O        2.93598600       5.88708550       1.65175084       32      -2.00000000      -2.00000000      -0.02348789       0.02354834       0.00096873
O        2.93598600       5.88708550       6.52708516       32      -2.00000000      -2.00000000      -0.02348789       0.02354834      -0.00096873
O        0.00000000       0.00000000       6.52708516       32      -2.00000000      -2.00000000      -0.02348789       0.02354834      -0.00096873
O       -0.00000000       0.00000000       1.65175084       32      -2.00000000      -2.00000000      -0.02348789       0.02354834       0.00096873
O        2.93598600       0.00000000       1.87160782       36      -2.00000000      -2.00000000      -0.02348789       0.02354834       0.00119428
O        2.93598600       0.00000000       6.30722818       36      -2.00000000      -2.00000000      -0.02348789       0.02354834      -0.00119428
O        0.00000000       5.88708550       6.30722818       36      -2.00000000      -2.00000000      -0.02348789       0.02354834      -0.00119428
O        0.00000000       5.88708550       1.87160782       36      -2.00000000      -2.00000000      -0.02348789       0.02354834       0.00119428
40
Lattice="5.869482139804162 0.0 0.0 -0.004585143498447207 11.7658734183729 0.0 6.0023996764344306e-05 1.6855565859610577e-06 8.171548852846895" Properties=species:S:1:pos:R:3:spacegroup_kinds:I:1:field_charges:R:1:initial_charges:R:1:forces:R:3 spacegroup="P b a m" unit_cell=conventional occupancy="_JSON {\"0\": {\"Pb\": 1.0}, \"1\": {\"Pb\": 1.0}, \"2\": {\"Pb\": 1.0}, \"3\": {\"Pb\": 1.0}, \"4\": {\"Pb\": 1.0}, \"5\": {\"Pb\": 1.0}, \"6\": {\"Pb\": 1.0}, \"7\": {\"Pb\": 1.0}, \"8\": {\"Zr\": 1.0}, \"9\": {\"Zr\": 1.0}, \"10\": {\"Zr\": 1.0}, \"11\": {\"Zr\": 1.0}, \"12\": {\"Zr\": 1.0}, \"13\": {\"Zr\": 1.0}, \"14\": {\"Zr\": 1.0}, \"15\": {\"Zr\": 1.0}, \"16\": {\"O\": 1.0}, \"17\": {\"O\": 1.0}, \"18\": {\"O\": 1.0}, \"19\": {\"O\": 1.0}, \"20\": {\"O\": 1.0}, \"21\": {\"O\": 1.0}, \"22\": {\"O\": 1.0}, \"23\": {\"O\": 1.0}, \"24\": {\"O\": 1.0}, \"25\": {\"O\": 1.0}, \"26\": {\"O\": 1.0}, \"27\": {\"O\": 1.0}, \"28\": {\"O\": 1.0}, \"29\": {\"O\": 1.0}, \"30\": {\"O\": 1.0}, \"31\": {\"O\": 1.0}, \"32\": {\"O\": 1.0}, \"33\": {\"O\": 1.0}, \"34\": {\"O\": 1.0}, \"35\": {\"O\": 1.0}, \"36\": {\"O\": 1.0}, \"37\": {\"O\": 1.0}, \"38\": {\"O\": 1.0}, \"39\": {\"O\": 1.0}}" neb_image=1 energy=-39205.78194296927 polarization_c_per_m2="_JSON [0.020132201492632847, -0.006680668426853264, -2.6210094331906542e-05]" pbc="T T T"
Pb       1.19162915       1.41375570      -0.00058557        0       2.00000000       2.00000000       0.00435675      -0.00885158       0.00005399
Pb       4.70500502      10.27870492       0.00057484        0       2.00000000       2.00000000       0.00285706      -0.00812182      -0.00005507
Pb       1.76985780       7.30715310       0.00055737        0       2.00000000       2.00000000       0.00254081      -0.00641581      -0.00005356
Pb       4.11718683       4.39931642      -0.00064143        0       2.00000000       2.00000000       0.00243563      -0.00741881       0.00005881
Pb       1.22280277       1.49289315       4.08555842        4       2.00000000       2.00000000      -0.00099753      -0.00433501       0.00001803
Pb       4.63414195      10.23437976       4.08594529        4       2.00000000       2.00000000      -0.00101341      -0.00464676      -0.00001688
Pb       1.72832368       7.36623784       4.08595440        4       2.00000000       2.00000000       0.00550507      -0.00649937      -0.00001722
Pb       4.18530725       4.34282453       4.08556865        4       2.00000000       2.00000000       0.00575749      -0.00654060       0.00001782
Zr       4.35598886       1.45193875       2.03678207        8       4.00000000       4.00000000       0.00040604      -0.00250931      -0.00078574
Zr       1.51456453      10.29145149       6.12775963        8       4.00000000       4.00000000       0.00076539      -0.00265942      -0.00082955
Zr       1.51463740      10.29158131       2.04388667        8       4.00000000       4.00000000       0.00075571      -0.00267192       0.00081965
Zr       4.35592596       1.45179960       6.13463819        8       4.00000000       4.00000000       0.00041516      -0.00249606       0.00079643
Zr       4.45925824       7.33229274       6.13422014        8       4.00000000       4.00000000       0.00285889      -0.00311778       0.00067272
Zr       1.42819547       4.40711980       2.04310864        8       4.00000000       4.00000000       0.00231846      -0.00297069       0.00067814
Zr       1.42811804       4.40725630       6.12832026        8       4.00000000       4.00000000       0.00232883      -0.00298390      -0.00066734
Zr       4.45933500       7.33215079       2.03743668        8       4.00000000       4.00000000       0.00284872      -0.00310414      -0.00068265
O        4.53397146       1.87303618      -0.00003154       16      -2.00000000      -2.00000000      -0.00470245       0.00403375       0.00000273
O        1.29492999       9.93149105       0.00002827       16      -2.00000000      -2.00000000      -0.00368412       0.00479408      -0.00000271
O        4.25031764       7.74397950       0.00003213       16      -2.00000000      -2.00000000       0.00100731       0.00129660      -0.00000278
O        1.62310106       4.03691171      -0.00002988       16      -2.00000000      -2.00000000       0.00117876       0.00214112       0.00000286
O        4.68391163       1.11434950       4.08578791       20      -2.00000000      -2.00000000      -0.00379393       0.00220015      -0.00000126
O        1.14971575      10.66869958       4.08576622       20      -2.00000000      -2.00000000      -0.00345287       0.00174473       0.00000100
O        4.10818521       7.00355920       4.08576735       20      -2.00000000      -2.00000000       0.00175475       0.00363834       0.00000108
O        1.76968960       4.78886774       4.08579000       20      -2.00000000      -2.00000000       0.00135504       0.00238909      -0.00000128
O        3.13158908       3.09402173       2.29862513       24      -2.00000000      -2.00000000       0.00114552       0.00303871      -0.00090378
O        2.74618930       8.69564874       5.86933705       24      -2.00000000      -2.00000000       0.00198627       0.00260535      -0.00002081
O        2.74538495       8.69488717       2.30185607       24      -2.00000000      -2.00000000       0.00206060       0.00267726       0.00005698
O        3.13246359       3.09484384       5.87341765       24      -2.00000000      -2.00000000       0.00106854       0.00296333       0.00085998
O        5.66088823       8.98115152       5.88265201       24      -2.00000000      -2.00000000      -0.00264732       0.00388976       0.00303434
O        0.17617984       2.81657821       2.31271714       24      -2.00000000      -2.00000000      -0.00369305       0.00337655       0.00237043
O        0.17704169       2.81576086       5.85924661       24      -2.00000000      -2.00000000      -0.00376911       0.00345061      -0.00240899
O        5.66008793       8.98189234       2.28849289       24      -2.00000000      -2.00000000      -0.00257326       0.00381879      -0.00299537
O        2.92678441       5.90177066       1.65366652       32      -2.00000000      -2.00000000      -0.00140635       0.00445780       0.00082061
O        2.92608488       5.90235344       6.51786033       32      -2.00000000      -2.00000000      -0.00133720       0.00440348      -0.00081845
O       -0.00722613       0.01258493       6.52022832       32      -2.00000000      -2.00000000      -0.00164032       0.00294441      -0.00024659
O       -0.00654170       0.01315201       1.65136495       32      -2.00000000      -2.00000000      -0.00170686       0.00289218       0.00024481
O        2.90197361       0.02509552       1.86871926       36      -2.00000000      -2.00000000      -0.00784023       0.00602330      -0.00032112
O        2.90091065       0.02610445       6.30280119       36      -2.00000000      -2.00000000      -0.00773776       0.00592924       0.00032340
O        0.00605260       5.88356355       6.30128413       36      -2.00000000      -2.00000000       0.00219740       0.00036528      -0.00008872
O        0.00714308       5.88458887       1.87031766       36      -2.00000000      -2.00000000       0.00209156       0.00026907       0.00008607
40
Lattice="5.870044542447861 0.0 0.0 -0.006695599083122935 11.765230198739735 0.0 0.002769238309387624 0.00014765171859485942 8.172403325658491" Properties=species:S:1:pos:R:3:spacegroup_kinds:I:1:field_charges:R:1:initial_charges:R:1:forces:R:3 spacegroup="P b a m" unit_cell=conventional occupancy="_JSON {\"0\": {\"Pb\": 1.0}, \"1\": {\"Pb\": 1.0}, \"2\": {\"Pb\": 1.0}, \"3\": {\"Pb\": 1.0}, \"4\": {\"Pb\": 1.0}, \"5\": {\"Pb\": 1.0}, \"6\": {\"Pb\": 1.0}, \"7\": {\"Pb\": 1.0}, \"8\": {\"Zr\": 1.0}, \"9\": {\"Zr\": 1.0}, \"10\": {\"Zr\": 1.0}, \"11\": {\"Zr\": 1.0}, \"12\": {\"Zr\": 1.0}, \"13\": {\"Zr\": 1.0}, \"14\": {\"Zr\": 1.0}, \"15\": {\"Zr\": 1.0}, \"16\": {\"O\": 1.0}, \"17\": {\"O\": 1.0}, \"18\": {\"O\": 1.0}, \"19\": {\"O\": 1.0}, \"20\": {\"O\": 1.0}, \"21\": {\"O\": 1.0}, \"22\": {\"O\": 1.0}, \"23\": {\"O\": 1.0}, \"24\": {\"O\": 1.0}, \"25\": {\"O\": 1.0}, \"26\": {\"O\": 1.0}, \"27\": {\"O\": 1.0}, \"28\": {\"O\": 1.0}, \"29\": {\"O\": 1.0}, \"30\": {\"O\": 1.0}, \"31\": {\"O\": 1.0}, \"32\": {\"O\": 1.0}, \"33\": {\"O\": 1.0}, \"34\": {\"O\": 1.0}, \"35\": {\"O\": 1.0}, \"36\": {\"O\": 1.0}, \"37\": {\"O\": 1.0}, \"38\": {\"O\": 1.0}, \"39\": {\"O\": 1.0}}" neb_image=2 energy=-39205.78180728224 polarization_c_per_m2="_JSON [0.023139330794137807, -0.022278004923666935, -0.0035542703590612746]" pbc="T T T"
Pb       1.19745496       1.39819566      -0.03039484        0       2.00000000       2.00000000      -0.00002330       0.00053660       0.00439732
Pb       4.70441944      10.26478102       0.02645074        0       2.00000000       2.00000000      -0.00049442       0.00194687      -0.00146251
Pb       1.77062173       7.29541056       0.02553915        0       2.00000000       2.00000000      -0.00022303       0.00131621      -0.00159336
Pb       4.11822039       4.38366241      -0.03325233        0       2.00000000       2.00000000      -0.00020734       0.00173753       0.00402272
Pb       1.21758457       1.48466069       4.07296199        4       2.00000000       2.00000000       0.00103283       0.00130834       0.00284664
Pb       4.62869863      10.22478014       4.09299772        4       2.00000000       2.00000000       0.00086636       0.00084508       0.00030404
Pb       1.73888899       7.35615194       4.09355823        4       2.00000000       2.00000000      -0.00123975       0.00088426       0.00017093
Pb       4.19477381       4.33294926       4.07404808        4       2.00000000       2.00000000      -0.00013135       0.00134513       0.00229747
Zr       4.35662862       1.45174400       2.03207464        8       4.00000000       4.00000000       0.00010641       0.00023563       0.00083839
Zr       1.51046787      10.28426160       6.12876769        8       4.00000000       4.00000000       0.00053873       0.00063401       0.00023066
Zr       1.51428817      10.29059168       2.04754871        8       4.00000000       4.00000000      -0.00016159      -0.00010424      -0.00015316
Zr       4.35383750       1.44501046       6.13263548        8       4.00000000       4.00000000       0.00054236       0.00085843       0.00065621
Zr       4.46189126       7.33078194       6.13854507        8       4.00000000       4.00000000      -0.00010132       0.00015247      -0.00018797
Zr       1.43340866       4.40020970       2.04120344        8       4.00000000       4.00000000      -0.00021590       0.00051089       0.00048305
Zr       1.42997456       4.40649302       6.12446697        8       4.00000000       4.00000000      -0.00002896       0.00009874       0.00067763
Zr       4.46573358       7.32410331       2.03877232        8       4.00000000       4.00000000      -0.00057948       0.00062344       0.00001100
O        4.52111453       1.87560977      -0.00165992       16      -2.00000000      -2.00000000       0.00232810       0.00050117       0.00019113
O        1.28883698       9.93846135       0.00145270       16      -2.00000000      -2.00000000      -0.00030483      -0.00123098      -0.00024935
O        4.25571377       7.74380115       0.00176050       16      -2.00000000      -2.00000000      -0.00006182      -0.00006803      -0.00025642
O        1.62960266       4.04101962      -0.00137590       16      -2.00000000      -2.00000000      -0.00119003      -0.00096215       0.00007681
O        4.67788772       1.11786804       4.08697667       20      -2.00000000      -2.00000000       0.00042728      -0.00120022      -0.00016994
O        1.14447144      10.66946285       4.08610448       20      -2.00000000      -2.00000000       0.00089235       0.00043935      -0.00015443
O        4.11692557       7.00913869       4.08625025       20      -2.00000000      -2.00000000      -0.00145211      -0.00100370      -0.00017446
O        1.77310109       4.78934292       4.08718733       20      -2.00000000      -2.00000000       0.00039633       0.00027200      -0.00017813
O        3.11300997       3.07785529       2.31043994       24      -2.00000000      -2.00000000       0.00318969       0.00261477      -0.00195192
O        2.77126398       8.72051700       5.86173450       24      -2.00000000      -2.00000000      -0.00161038      -0.00182180       0.00043050
O        2.73478210       8.68524523       2.29633169       24      -2.00000000      -2.00000000       0.00040385       0.00052920      -0.00038595
O        3.15941211       3.12064124       5.88902196       24      -2.00000000      -2.00000000      -0.00288355      -0.00272429      -0.00182163
O        5.67699593       8.96815296       5.87902021       24      -2.00000000      -2.00000000      -0.00050636       0.00041210      -0.00122116
O        0.14822600       2.84403009       2.32527616       24      -2.00000000      -2.00000000       0.00408703      -0.00392125      -0.00073746
O        0.19408593       2.80066038       5.86925262       24      -2.00000000      -2.00000000      -0.00221808       0.00206259      -0.00275852
O        5.64064491       9.00221141       2.27579725       24      -2.00000000      -2.00000000       0.00146074      -0.00185716       0.00149171
O        2.94385910       5.89445520       1.65825612       32      -2.00000000      -2.00000000      -0.00177985       0.00076407      -0.00150074
O        2.91002268       5.92276091       6.51434511       32      -2.00000000      -2.00000000       0.00122393      -0.00165770       0.00050758
O       -0.02705762       0.00240967       6.52169116       32      -2.00000000      -2.00000000       0.00186515       0.00076320      -0.00026612
O        0.00743334       0.03108760       1.65530287       32      -2.00000000      -2.00000000      -0.00255491      -0.00285190      -0.00150948
O        2.91443003       0.01144429       1.86987254       36      -2.00000000      -2.00000000      -0.00250549       0.00257554      -0.00249970
O        2.86189740       0.06121469       6.30214204       36      -2.00000000      -2.00000000       0.00357979      -0.00285918       0.00105401
O       -0.01092670       5.86258791       6.30384213       36      -2.00000000      -2.00000000       0.00116546       0.00151617      -0.00105365
O        0.04196314       5.91274012       1.87350758       36      -2.00000000      -2.00000000      -0.00363254      -0.00322117      -0.00040175
40
Lattice="5.8717244792461045 0.0 0.0 -0.0011034055119734324 11.761979166666823 0.0 0.0051193047539542695 0.00037730734184266806 8.176597840065208" Properties=species:S:1:pos:R:3:spacegroup_kinds:I:1:field_charges:R:1:initial_charges:R:1:forces:R:3 spacegroup="P b a m" unit_cell=conventional occupancy="_JSON {\"0\": {\"Pb\": 1.0}, \"1\": {\"Pb\": 1.0}, \"2\": {\"Pb\": 1.0}, \"3\": {\"Pb\": 1.0}, \"4\": {\"Pb\": 1.0}, \"5\": {\"Pb\": 1.0}, \"6\": {\"Pb\": 1.0}, \"7\": {\"Pb\": 1.0}, \"8\": {\"Zr\": 1.0}, \"9\": {\"Zr\": 1.0}, \"10\": {\"Zr\": 1.0}, \"11\": {\"Zr\": 1.0}, \"12\": {\"Zr\": 1.0}, \"13\": {\"Zr\": 1.0}, \"14\": {\"Zr\": 1.0}, \"15\": {\"Zr\": 1.0}, \"16\": {\"O\": 1.0}, \"17\": {\"O\": 1.0}, \"18\": {\"O\": 1.0}, \"19\": {\"O\": 1.0}, \"20\": {\"O\": 1.0}, \"21\": {\"O\": 1.0}, \"22\": {\"O\": 1.0}, \"23\": {\"O\": 1.0}, \"24\": {\"O\": 1.0}, \"25\": {\"O\": 1.0}, \"26\": {\"O\": 1.0}, \"27\": {\"O\": 1.0}, \"28\": {\"O\": 1.0}, \"29\": {\"O\": 1.0}, \"30\": {\"O\": 1.0}, \"31\": {\"O\": 1.0}, \"32\": {\"O\": 1.0}, \"33\": {\"O\": 1.0}, \"34\": {\"O\": 1.0}, \"35\": {\"O\": 1.0}, \"36\": {\"O\": 1.0}, \"37\": {\"O\": 1.0}, \"38\": {\"O\": 1.0}, \"39\": {\"O\": 1.0}}" neb_image=3 energy=-39205.775938245024 polarization_c_per_m2="_JSON [0.022375060806037756, -0.03326090671563819, -0.015940549210278813]" pbc="T T T"
Pb       1.19908953       1.39389932      -0.06749280        0       2.00000000       2.00000000      -0.00186512       0.00229926       0.01544288
Pb       4.71312750      10.24749697       0.04168112        0       2.00000000       2.00000000      -0.00239891       0.01112881       0.00518880
Pb       1.77772532       7.28635740       0.04235581        0       2.00000000       2.00000000      -0.00181529       0.00802817       0.00061126
Pb       4.12378843       4.37168194      -0.06800705        0       2.00000000       2.00000000      -0.00104245       0.01078365       0.01131656
Pb       1.21179172       1.47542041       4.05186442        4       2.00000000       2.00000000       0.00493198       0.00953405       0.01601691
Pb       4.63010316      10.21738858       4.09485924        4       2.00000000       2.00000000       0.00442242       0.00558799       0.00508287
Pb       1.75150570       7.34712780       4.09633058        4       2.00000000       2.00000000      -0.00714814       0.00505548       0.00416604
Pb       4.19967463       4.32112529       4.05785028        4       2.00000000       2.00000000      -0.00055298       0.00860231       0.00850240
Zr       4.35871339       1.45020896       2.02620832        8       4.00000000       4.00000000       0.00103773       0.00239846       0.00377410
Zr       1.51300662      10.27616763       6.13082801        8       4.00000000       4.00000000       0.00151140       0.00227377       0.00227774
Zr       1.52137495      10.28882512       2.04998206        8       4.00000000       4.00000000       0.00009197       0.00093657       0.00055651
Zr       4.35320224       1.43795591       6.13055654        8       4.00000000       4.00000000       0.00160865       0.00316323       0.00262822
Zr       4.46900693       7.32836869       6.14322412        8       4.00000000       4.00000000      -0.00156330       0.00263814       0.00012599
Zr       1.43894159       4.39521273       2.03814950        8       4.00000000       4.00000000      -0.00009399       0.00139776       0.00145640
Zr       1.43427608       4.40553631       6.12232250        8       4.00000000       4.00000000      -0.00046396       0.00201628       0.00268406
Zr       4.47617393       7.31711890       2.04064962        8       4.00000000       4.00000000      -0.00233942       0.00216622       0.00097760
O        4.50649056       1.87093198      -0.00332641       16      -2.00000000      -2.00000000       0.01343026       0.00330674       0.00029081
O        1.29391197       9.94477488       0.00357219       16      -2.00000000      -2.00000000      -0.00003608      -0.00767182      -0.00100204
O        4.26411016       7.74172169       0.00395392       16      -2.00000000      -2.00000000      -0.00017133      -0.00031351      -0.00076639
O        1.63943881       4.04650388      -0.00215719       16      -2.00000000      -2.00000000      -0.00687085      -0.00616491      -0.00030574
O        4.67675678       1.12556148       4.09032801       20      -2.00000000      -2.00000000       0.00293398      -0.00944004      -0.00092165
O        1.14580291      10.66200619       4.08927854       20      -2.00000000      -2.00000000       0.00394869       0.00242262      -0.00114699
O        4.13181974       7.01717850       4.08946860       20      -2.00000000      -2.00000000      -0.00779777      -0.00665514      -0.00102931
O        1.77446254       4.78803860       4.09066648       20      -2.00000000      -2.00000000       0.00230846       0.00228214      -0.00079737
O        3.08673079       3.05213956       2.32971013       24      -2.00000000      -2.00000000       0.00897203       0.00606878      -0.00518154
O        2.79100637       8.73254789       5.86453818       24      -2.00000000      -2.00000000      -0.00333019      -0.00460048      -0.00095823
O        2.73109176       8.67265987       2.29412479       24      -2.00000000      -2.00000000      -0.00430699      -0.00376407      -0.00453304
O        3.18534732       3.14055607       5.90550358       24      -2.00000000      -2.00000000      -0.00788946      -0.00774246      -0.00700769
O        5.69046039       8.96079339       5.88875653       24      -2.00000000      -2.00000000       0.00304026      -0.00334109      -0.01046555
O        0.11508966       2.87750217       2.33487218       24      -2.00000000      -2.00000000       0.01389083      -0.01355523       0.00112298
O        0.21474401       2.78348237       5.89239503       24      -2.00000000      -2.00000000      -0.00425544       0.00416905      -0.01432969
O        5.63136433       9.01823685       2.26477028       24      -2.00000000      -2.00000000       0.00131009      -0.00386639       0.00376290
O        2.96780409       5.88163882       1.66871062       32      -2.00000000      -2.00000000      -0.00175400      -0.00243640      -0.00923514
O        2.90668578       5.93300766       6.51473100       32      -2.00000000      -2.00000000       0.00153355      -0.00501336       0.00284091
O       -0.04090913      -0.00459035       6.52590219       32      -2.00000000      -2.00000000       0.00481386       0.00013480      -0.00063192
O        0.03122117       0.05591870       1.66897677       32      -2.00000000      -2.00000000      -0.00955770      -0.01274436      -0.01163813
O        2.94024674      -0.01352754       1.88816054       36      -2.00000000      -2.00000000      -0.00430185       0.00513389      -0.01519712
O        2.83517281       0.08472318       6.29865177       36      -2.00000000      -2.00000000       0.01038938      -0.00731019       0.00285830
O       -0.01710717       5.84795402       6.31285677       36      -2.00000000      -2.00000000      -0.00188093       0.00074693      -0.00486874
O        0.07984407       5.94200969       1.87975839       36      -2.00000000      -2.00000000      -0.00873939      -0.00765564      -0.00166799
40