40
Lattice="5.871972 0.0 0.0 0.0 11.774171 0.0 0.0 0.0 8.178836" Properties=species:S:1:pos:R:3:spacegroup_kinds:I:1:field_charges:R:1:initial_charges:R:1:forces:R:3 spacegroup="P b a m" unit_cell=conventional occupancy="_JSON {\"0\": {\"Pb\": 1.0}, \"1\": {\"Pb\": 1.0}, \"2\": {\"Pb\": 1.0}, \"3\": {\"Pb\": 1.0}, \"4\": {\"Pb\": 1.0}, \"5\": {\"Pb\": 1.0}, \"6\": {\"Pb\": 1.0}, \"7\": {\"Pb\": 1.0}, \"8\": {\"Zr\": 1.0}, \"9\": {\"Zr\": 1.0}, \"10\": {\"Zr\": 1.0}, \"11\": {\"Zr\": 1.0}, \"12\": {\"Zr\": 1.0}, \"13\": {\"Zr\": 1.0}, \"14\": {\"Zr\": 1.0}, \"15\": {\"Zr\": 1.0}, \"16\": {\"O\": 1.0}, \"17\": {\"O\": 1.0}, \"18\": {\"O\": 1.0}, \"19\": {\"O\": 1.0}, \"20\": {\"O\": 1.0}, \"21\": {\"O\": 1.0}, \"22\": {\"O\": 1.0}, \"23\": {\"O\": 1.0}, \"24\": {\"O\": 1.0}, \"25\": {\"O\": 1.0}, \"26\": {\"O\": 1.0}, \"27\": {\"O\": 1.0}, \"28\": {\"O\": 1.0}, \"29\": {\"O\": 1.0}, \"30\": {\"O\": 1.0}, \"31\": {\"O\": 1.0}, \"32\": {\"O\": 1.0}, \"33\": {\"O\": 1.0}, \"34\": {\"O\": 1.0}, \"35\": {\"O\": 1.0}, \"36\": {\"O\": 1.0}, \"37\": {\"O\": 1.0}, \"38\": {\"O\": 1.0}, \"39\": {\"O\": 1.0}}" neb_image=0 energy=-39205.764739708866 polarization_c_per_m2="_JSON [-0.0012611573750599988, 0.0349032942069816, -1.3526432333244794e-15]" pbc="T T T"
Pb       1.17373646       1.45287285      -0.00000000        0       2.00000000       2.00000000       0.01811033      -0.02203254      -0.00000000
Pb       4.69823554      10.32129815      -0.00000000        0       2.00000000       2.00000000       0.02886545      -0.02506414      -0.00000000
Pb       1.76224954       7.33995835      -0.00000000        0       2.00000000       2.00000000       0.02886545      -0.02203254      -0.00000000
Pb       4.10972246       4.43421265      -0.00000000        0       2.00000000       2.00000000       0.01811033      -0.02506414      -0.00000000
Pb       1.22777814       1.51267559       4.08941800        4       2.00000000       2.00000000       0.01833476      -0.01928032       0.00000000
Pb       4.64419386      10.26149541       4.08941800        4       2.00000000       2.00000000       0.02864101      -0.02781637       0.00000000
Pb       1.70820786       7.39976109       4.08941800        4       2.00000000       2.00000000       0.02864101      -0.01928032       0.00000000
Pb       4.16376414       4.37440991       4.08941800        4       2.00000000       2.00000000       0.01833476      -0.02781637       0.00000000
Zr       4.35630128       1.46381254       2.04209901        8       4.00000000       4.00000000       0.04074979      -0.05115421       0.00128299
Zr       1.51567072      10.31035846       6.13673699        8       4.00000000       4.00000000       0.05320176      -0.04303916      -0.00128299
Zr       1.51567072      10.31035846       2.04209901        8       4.00000000       4.00000000       0.05320176      -0.04303916       0.00128299
Zr       4.35630128       1.46381254       6.13673699        8       4.00000000       4.00000000       0.04074979      -0.05115421      -0.00128299
Zr       4.45165672       7.35089804       6.13673699        8       4.00000000       4.00000000       0.05320176      -0.05115421      -0.00128299
Zr       1.42031528       4.42327296       2.04209901        8       4.00000000       4.00000000       0.04074979      -0.04303916       0.00128299
Zr       1.42031528       4.42327296       6.13673699        8       4.00000000       4.00000000       0.04074979      -0.04303916      -0.00128299
Zr       4.45165672       7.35089804       2.04209901        8       4.00000000       4.00000000       0.05320176      -0.05115421       0.00128299
O        4.55672239       1.85661981      -0.00000000       16      -2.00000000      -2.00000000      -0.01967453       0.01834648       0.00000000
O        1.31524961       9.91755119      -0.00000000       16      -2.00000000      -2.00000000      -0.02730124       0.02875020       0.00000000
O        4.25123561       7.74370531      -0.00000000       16      -2.00000000      -2.00000000      -0.02730124       0.01834648       0.00000000
O        1.62073639       4.03046569      -0.00000000       16      -2.00000000      -2.00000000      -0.01967453       0.02875020       0.00000000
O        4.70256932       1.10550087       4.08941800       20      -2.00000000      -2.00000000      -0.01760133       0.03098644      -0.00000000
O        1.16940268      10.66867013       4.08941800       20      -2.00000000      -2.00000000      -0.02937445       0.01611025      -0.00000000
O        4.10538868       6.99258637       4.08941800       20      -2.00000000      -2.00000000      -0.02937445       0.03098644      -0.00000000
O        1.76658332       4.78158463       4.08941800       20      -2.00000000      -2.00000000      -0.01760133       0.01611025      -0.00000000
O        3.12999853       3.08379167       2.30409508       24      -2.00000000      -2.00000000      -0.03345472       0.03894801      -0.00556508
O        2.74197347       8.69037933       5.87474092       24      -2.00000000      -2.00000000      -0.01352106       0.00814867       0.00556508
O        2.74197347       8.69037933       2.30409508       24      -2.00000000      -2.00000000      -0.01352106       0.00814867      -0.00556508
O        3.12999853       3.08379167       5.87474092       24      -2.00000000      -2.00000000      -0.03345472       0.03894801       0.00556508
O        5.67795947       8.97087717       5.87474092       24      -2.00000000      -2.00000000      -0.01352106       0.03894801       0.00556508
O        0.19401253       2.80329383       2.30409508       24      -2.00000000      -2.00000000      -0.03345472       0.00814867      -0.00556508
O        0.19401253       2.80329383       5.87474092       24      -2.00000000      -2.00000000      -0.03345472       0.00814867       0.00556508
O        5.67795947       8.97087717       2.30409508       24      -2.00000000      -2.00000000      -0.01352106       0.03894801      -0.00556508
O        2.93598600       5.88708550       1.65175084       32      -2.00000000      -2.00000000      -0.02348789       0.02354834       0.00096873
O        2.93598600       5.88708550       6.52708516       32      -2.00000000      -2.00000000      -0.02348789       0.02354834      -0.00096873
O        0.00000000       0.00000000       6.52708516       32      -2.00000000      -2.00000000      -0.02348789       0.02354834      -0.00096873
O       -0.00000000       0.00000000       1.65175084       32      -2.00000000      -2.00000000      -0.02348789       0.02354834       0.00096873
O        2.93598600       0.00000000       1.87160782       36      -2.00000000      -2.00000000      -0.02348789       0.02354834       0.00119428
O        2.93598600       0.00000000       6.30722818       36      -2.00000000      -2.00000000      -0.02348789       0.02354834      -0.00119428
O        0.00000000       5.88708550       6.30722818       36      -2.00000000      -2.00000000      -0.02348789       0.02354834      -0.00119428
O        0.00000000       5.88708550       1.87160782       36      -2.00000000      -2.00000000      -0.02348789       0.02354834       0.00119428
40
Lattice="5.869494324530079 0.0 0.0 -0.0047976819870377664 11.765903167457575 0.0 -3.436318342292488e-05 -5.296709845500856e-07 8.17153725229262" Properties=species:S:1:pos:R:3:spacegroup_kinds:I:1:field_charges:R:1:initial_charges:R:1:forces:R:3 spacegroup="P b a m" unit_cell=conventional occupancy="_JSON {\"0\": {\"Pb\": 1.0}, \"1\": {\"Pb\": 1.0}, \"2\": {\"Pb\": 1.0}, \"3\": {\"Pb\": 1.0}, \"4\": {\"Pb\": 1.0}, \"5\": {\"Pb\": 1.0}, \"6\": {\"Pb\": 1.0}, \"7\": {\"Pb\": 1.0}, \"8\": {\"Zr\": 1.0}, \"9\": {\"Zr\": 1.0}, \"10\": {\"Zr\": 1.0}, \"11\": {\"Zr\": 1.0}, \"12\": {\"Zr\": 1.0}, \"13\": {\"Zr\": 1.0}, \"14\": {\"Zr\": 1.0}, \"15\": {\"Zr\": 1.0}, \"16\": {\"O\": 1.0}, \"17\": {\"O\": 1.0}, \"18\": {\"O\": 1.0}, \"19\": {\"O\": 1.0}, \"20\": {\"O\": 1.0}, \"21\": {\"O\": 1.0}, \"22\": {\"O\": 1.0}, \"23\": {\"O\": 1.0}, \"24\": {\"O\": 1.0}, \"25\": {\"O\": 1.0}, \"26\": {\"O\": 1.0}, \"27\": {\"O\": 1.0}, \"28\": {\"O\": 1.0}, \"29\": {\"O\": 1.0}, \"30\": {\"O\": 1.0}, \"31\": {\"O\": 1.0}, \"32\": {\"O\": 1.0}, \"33\": {\"O\": 1.0}, \"34\": {\"O\": 1.0}, \"35\": {\"O\": 1.0}, \"36\": {\"O\": 1.0}, \"37\": {\"O\": 1.0}, \"38\": {\"O\": 1.0}, \"39\": {\"O\": 1.0}}" neb_image=1 energy=-39205.78202821247 polarization_c_per_m2="_JSON [0.020258323338662704, -0.007269670374596162, 3.736701337123684e-05]" pbc="T T T"
Pb       1.19182231       1.41317162       0.00034279        0       2.00000000       2.00000000       0.00417673      -0.00844573      -0.00004178
Pb       4.70481353      10.27837818      -0.00030237        0       2.00000000       2.00000000       0.00279145      -0.00780526       0.00001465
Pb       1.76976657       7.30666415      -0.00029233        0       2.00000000       2.00000000       0.00247522      -0.00614778       0.00001618
Pb       4.11708975       4.39864967       0.00037530        0       2.00000000       2.00000000       0.00238418      -0.00709541      -0.00004576
Pb       1.22252973       1.49257525       4.08591366        4       2.00000000       2.00000000      -0.00090422      -0.00416757      -0.00003029
Pb       4.63375816      10.23396825       4.08568984        4       2.00000000       2.00000000      -0.00093106      -0.00444527      -0.00000183
Pb       1.72857687       7.36596809       4.08568663        4       2.00000000       2.00000000       0.00527283      -0.00625376      -0.00000290
Pb       4.18555913       4.34258242       4.08590231        4       2.00000000       2.00000000       0.00552360      -0.00629655      -0.00002329
Zr       4.35578264       1.45173048       2.03684939        8       4.00000000       4.00000000       0.00042525      -0.00241487      -0.00076634
Zr       1.51431386      10.29144714       6.12762990        8       4.00000000       4.00000000       0.00076190      -0.00257064      -0.00078916
Zr       1.51427195      10.29137397       2.04386109        8       4.00000000       4.00000000       0.00076790      -0.00256327       0.00078791
Zr       4.35581358       1.45180852       6.13477018        8       4.00000000       4.00000000       0.00042269      -0.00242158       0.00075101
Zr       4.45930386       7.33201919       6.13419535        8       4.00000000       4.00000000       0.00274491      -0.00299372       0.00064745
Zr       1.42811494       4.40708576       2.04325584        8       4.00000000       4.00000000       0.00224319      -0.00287356       0.00063720
Zr       1.42815371       4.40701418       6.12835713        8       4.00000000       4.00000000       0.00223998      -0.00287032      -0.00064910
Zr       4.45926141       7.33209603       2.03728917        8       4.00000000       4.00000000       0.00275094      -0.00299892      -0.00064628
O        4.53355049       1.87318643       0.00001758       16      -2.00000000      -2.00000000      -0.00449973       0.00389430      -0.00000169
O        1.29451078       9.93171586      -0.00001678       16      -2.00000000      -2.00000000      -0.00353975       0.00462461       0.00000235
O        4.25044215       7.74402015      -0.00001866       16      -2.00000000      -2.00000000       0.00091511       0.00126107       0.00000266
O        1.62331741       4.03704554       0.00001568       16      -2.00000000      -2.00000000       0.00107673       0.00206795      -0.00000041
O        4.68355510       1.11451941       4.08575964       20      -2.00000000      -2.00000000      -0.00362265       0.00215571       0.00000149
O        1.14933978      10.66892790       4.08577043       20      -2.00000000      -2.00000000      -0.00332635       0.00168959       0.00000149
O        4.10830346       7.00362943       4.08576963       20      -2.00000000      -2.00000000       0.00163926       0.00350945       0.00000134
O        1.76973573       4.78879873       4.08575742       20      -2.00000000      -2.00000000       0.00127030       0.00231702       0.00000222
O        3.13249835       3.09505381       2.29800331       24      -2.00000000      -2.00000000       0.00100143       0.00284188      -0.00081561
O        2.74580928       8.69556036       5.86940959       24      -2.00000000      -2.00000000       0.00191302       0.00250763      -0.00001833
O        2.74622493       8.69595680       2.30229905       24      -2.00000000      -2.00000000       0.00189317       0.00248448       0.00001896
O        3.13197709       3.09457306       5.87323337       24      -2.00000000      -2.00000000       0.00106623       0.00289788       0.00085970
O        5.66016883       8.98172925       5.88290755       24      -2.00000000      -2.00000000      -0.00251708       0.00371133       0.00290968
O        0.17670954       2.81598872       2.31238462       24      -2.00000000      -2.00000000      -0.00361797       0.00330370       0.00229002
O        0.17619418       2.81647272       5.85889982       24      -2.00000000      -2.00000000      -0.00355340       0.00324146      -0.00225597
O        5.66058372       8.98133965       2.28883073       24      -2.00000000      -2.00000000      -0.00253649       0.00373334      -0.00291326
O        2.92592379       5.90264114       1.65380713       32      -2.00000000      -2.00000000      -0.00131597       0.00423946       0.00078021
O        2.92630434       5.90232417       6.51772507       32      -2.00000000      -2.00000000      -0.00134778       0.00426468      -0.00077103
O       -0.00711147       0.01298799       6.52017746       32      -2.00000000      -2.00000000      -0.00160786       0.00279834      -0.00023255
O       -0.00749592       0.01266658       1.65131549       32      -2.00000000      -2.00000000      -0.00156491       0.00283455       0.00025160
O        2.90033488       0.02649098       1.86860911       36      -2.00000000      -2.00000000      -0.00741626       0.00569011      -0.00027216
O        2.90092496       0.02593168       6.30292749       36      -2.00000000      -2.00000000      -0.00747318       0.00574108       0.00028336
O        0.00692764       5.88436179       6.30120923       36      -2.00000000      -2.00000000       0.00198332       0.00025200      -0.00007491
O        0.00632872       5.88379352       1.87027819       36      -2.00000000      -2.00000000       0.00203532       0.00030260       0.00009317
40
Lattice="5.870580454589616 0.0 0.0 -0.008193709975875771 11.765295371904433 0.0 0.0029787281020605557 5.208520021387971e-05 8.172579017313018" Properties=species:S:1:pos:R:3:spacegroup_kinds:I:1:field_charges:R:1:initial_charges:R:1:forces:R:3 spacegroup="P b a m" unit_cell=conventional occupancy="_JSON {\"0\": {\"Pb\": 1.0}, \"1\": {\"Pb\": 1.0}, \"2\": {\"Pb\": 1.0}, \"3\": {\"Pb\": 1.0}, \"4\": {\"Pb\": 1.0}, \"5\": {\"Pb\": 1.0}, \"6\": {\"Pb\": 1.0}, \"7\": {\"Pb\": 1.0}, \"8\": {\"Zr\": 1.0}, \"9\": {\"Zr\": 1.0}, \"10\": {\"Zr\": 1.0}, \"11\": {\"Zr\": 1.0}, \"12\": {\"Zr\": 1.0}, \"13\": {\"Zr\": 1.0}, \"14\": {\"Zr\": 1.0}, \"15\": {\"Zr\": 1.0}, \"16\": {\"O\": 1.0}, \"17\": {\"O\": 1.0}, \"18\": {\"O\": 1.0}, \"19\": {\"O\": 1.0}, \"20\": {\"O\": 1.0}, \"21\": {\"O\": 1.0}, \"22\": {\"O\": 1.0}, \"23\": {\"O\": 1.0}, \"24\": {\"O\": 1.0}, \"25\": {\"O\": 1.0}, \"26\": {\"O\": 1.0}, \"27\": {\"O\": 1.0}, \"28\": {\"O\": 1.0}, \"29\": {\"O\": 1.0}, \"30\": {\"O\": 1.0}, \"31\": {\"O\": 1.0}, \"32\": {\"O\": 1.0}, \"33\": {\"O\": 1.0}, \"34\": {\"O\": 1.0}, \"35\": {\"O\": 1.0}, \"36\": {\"O\": 1.0}, \"37\": {\"O\": 1.0}, \"38\": {\"O\": 1.0}, \"39\": {\"O\": 1.0}}" neb_image=2 energy=-39205.78166275831 polarization_c_per_m2="_JSON [0.02306050278981429, -0.02487673253389366, -0.0061827209543662024]" pbc="T T T"
Pb       1.19764124       1.39444368      -0.03047110        0       2.00000000       2.00000000       0.00059096       0.00096114       0.00583047
Pb       4.70378517      10.26006767       0.02207203        0       2.00000000       2.00000000      -0.00057763       0.00381845       0.00069396
Pb       1.77218906       7.29604700       0.02171669        0       2.00000000       2.00000000      -0.00135262       0.00172542      -0.00008624
Pb       4.11793382       4.38401908      -0.03333424        0       2.00000000       2.00000000      -0.00008770       0.00323915       0.00533761
Pb       1.21434155       1.48432684       4.07071534        4       2.00000000       2.00000000       0.00228688       0.00253245       0.00552074
Pb       4.62623910      10.22522538       4.09077840        4       2.00000000       2.00000000       0.00122531       0.00183053       0.00149314
Pb       1.73842395       7.35359666       4.09070858        4       2.00000000       2.00000000      -0.00214006       0.00186946       0.00190200
Pb       4.19466282       4.32857661       4.07290055        4       2.00000000       2.00000000      -0.00041047       0.00310362       0.00338033
Zr       4.35573014       1.45042576       2.03120367        8       4.00000000       4.00000000       0.00069317       0.00075389       0.00137694
Zr       1.50887171      10.28331982       6.12797981        8       4.00000000       4.00000000       0.00079670       0.00102268       0.00067061
Zr       1.51239073      10.28950591       2.04720623        8       4.00000000       4.00000000       0.00015943       0.00021439       0.00015760
Zr       4.35365367       1.44408318       6.13294565        8       4.00000000       4.00000000       0.00092319       0.00141416       0.00094359
Zr       4.46284609       7.32987875       6.13776618        8       4.00000000       4.00000000      -0.00067362       0.00085713       0.00017587
Zr       1.43332138       4.40051765       2.04107274        8       4.00000000       4.00000000      -0.00041719       0.00043345       0.00066845
Zr       1.43062808       4.40570718       6.12420478        8       4.00000000       4.00000000      -0.00033436       0.00055300       0.00108174
Zr       4.46639115       7.32394277       2.03831759        8       4.00000000       4.00000000      -0.00118258       0.00099189       0.00036661
O        4.51919985       1.87506702      -0.00145309       16      -2.00000000      -2.00000000       0.00335178       0.00099956       0.00014220
O        1.28508031       9.94002510       0.00155152       16      -2.00000000      -2.00000000       0.00112446      -0.00224858      -0.00036496
O        4.25795554       7.74395949       0.00172914       16      -2.00000000      -2.00000000      -0.00130889       0.00008428      -0.00026407
O        1.63105585       4.04140580      -0.00105941       16      -2.00000000      -2.00000000      -0.00217774      -0.00173537      -0.00007878
O        4.67676567       1.11638356       4.08718553       20      -2.00000000      -2.00000000       0.00135438      -0.00278879      -0.00032539
O        1.14209353      10.66609589       4.08649581       20      -2.00000000      -2.00000000       0.00121934       0.00118286      -0.00040318
O        4.11711429       7.01445971       4.08650925       20      -2.00000000      -2.00000000      -0.00204863      -0.00296237      -0.00031520
O        1.77343931       4.79249586       4.08747891       20      -2.00000000      -2.00000000      -0.00006746       0.00031355      -0.00039442
O        3.10914058       3.07473383       2.31440300       24      -2.00000000      -2.00000000       0.00399133       0.00293661      -0.00259243
O        2.76379324       8.71397680       5.86891617       24      -2.00000000      -2.00000000      -0.00031836      -0.00074775      -0.00188375
O        2.73330225       8.68433908       2.29310030       24      -2.00000000      -2.00000000      -0.00061406      -0.00051446       0.00004826
O        3.15607072       3.11685205       5.88647760       24      -2.00000000      -2.00000000      -0.00353799      -0.00313821      -0.00290266
O        5.66857998       8.97577866       5.88476527       24      -2.00000000      -2.00000000       0.00151554      -0.00137949      -0.00292449
O        0.14271341       2.84946147       2.32864556       24      -2.00000000      -2.00000000       0.00561354      -0.00560777      -0.00089363
O        0.18923951       2.80578510       5.86717534       24      -2.00000000      -2.00000000      -0.00223816       0.00191795      -0.00433706
O        5.63817802       9.00482077       2.27448152       24      -2.00000000      -2.00000000       0.00116735      -0.00193215       0.00106333
O        2.94793915       5.89195911       1.65883492       32      -2.00000000      -2.00000000      -0.00213474       0.00021493      -0.00273736
O        2.91785157       5.91714439       6.51610855       32      -2.00000000      -2.00000000      -0.00037798      -0.00102319       0.00020118
O       -0.02267404       0.00726018       6.52141877       32      -2.00000000      -2.00000000       0.00216537       0.00034615      -0.00006503
O        0.01007650       0.03511784       1.65802362       32      -2.00000000      -2.00000000      -0.00294461      -0.00420786      -0.00379710
O        2.91418425       0.01054296       1.87179237       36      -2.00000000      -2.00000000      -0.00136970       0.00191861      -0.00425383
O        2.86551325       0.05642869       6.30327504       36      -2.00000000      -2.00000000       0.00426188      -0.00275803       0.00046473
O       -0.00159622       5.87100052       6.30428045       36      -2.00000000      -2.00000000      -0.00119205      -0.00004123      -0.00106864
O        0.04655486       5.91737179       1.87534493       36      -2.00000000      -2.00000000      -0.00493400      -0.00415010      -0.00183114
40
Lattice="5.874733462603052 0.0 0.0 -0.007222171121493699 11.7631403731804 0.0 0.00576927455607768 0.00044759024220087675 8.178131411742072" Properties=species:S:1:pos:R:3:spacegroup_kinds:I:1:field_charges:R:1:initial_charges:R:1:forces:R:3 spacegroup="P b a m" unit_cell=conventional occupancy="_JSON {\"0\": {\"Pb\": 1.0}, \"1\": {\"Pb\": 1.0}, \"2\": {\"Pb\": 1.0}, \"3\": {\"Pb\": 1.0}, \"4\": {\"Pb\": 1.0}, \"5\": {\"Pb\": 1.0}, \"6\": {\"Pb\": 1.0}, \"7\": {\"Pb\": 1.0}, \"8\": {\"Zr\": 1.0}, \"9\": {\"Zr\": 1.0}, \"10\": {\"Zr\": 1.0}, \"11\": {\"Zr\": 1.0}, \"12\": {\"Zr\": 1.0}, \"13\": {\"Zr\": 1.0}, \"14\": {\"Zr\": 1.0}, \"15\": {\"Zr\": 1.0}, \"16\": {\"O\": 1.0}, \"17\": {\"O\": 1.0}, \"18\": {\"O\": 1.0}, \"19\": {\"O\": 1.0}, \"20\": {\"O\": 1.0}, \"21\": {\"O\": 1.0}, \"22\": {\"O\": 1.0}, \"23\": {\"O\": 1.0}, \"24\": {\"O\": 1.0}, \"25\": {\"O\": 1.0}, \"26\": {\"O\": 1.0}, \"27\": {\"O\": 1.0}, \"28\": {\"O\": 1.0}, \"29\": {\"O\": 1.0}, \"30\": {\"O\": 1.0}, \"31\": {\"O\": 1.0}, \"32\": {\"O\": 1.0}, \"33\": {\"O\": 1.0}, \"34\": {\"O\": 1.0}, \"35\": {\"O\": 1.0}, \"36\": {\"O\": 1.0}, \"37\": {\"O\": 1.0}, \"38\": {\"O\": 1.0}, \"39\": {\"O\": 1.0}}" neb_image=3 energy=-39205.77154557144 polarization_c_per_m2="_JSON [0.02242547864108586, -0.045594960387996084, -0.029900295256010664]" pbc="T T T"
Pb       1.19449379       1.38771856      -0.06568886        0       2.00000000       2.00000000       0.00114293       0.00077441       0.02257266
Pb       4.71174873      10.23384293       0.01523615        0       2.00000000       2.00000000      -0.00156535       0.01813215       0.01674101
Pb       1.78304981       7.28339922       0.01956977        0       2.00000000       2.00000000      -0.00619191       0.00846351       0.00830727
Pb       4.12130981       4.36157850      -0.06542255        0       2.00000000       2.00000000      -0.00180773       0.01804083       0.01813530
Pb       1.20194535       1.46792958       4.03886428        4       2.00000000       2.00000000       0.00772207       0.01743338       0.03176060
Pb       4.62397652      10.21117877       4.08291544        4       2.00000000       2.00000000       0.00444537       0.01130829       0.01041305
Pb       1.75585135       7.34042116       4.07987612        4       2.00000000       2.00000000      -0.01071362       0.01038031       0.01429485
Pb       4.20241843       4.30831988       4.05452587        4       2.00000000       2.00000000      -0.00172468       0.01651694       0.01195988
Zr       4.35482529       1.44519701       2.02402858        8       4.00000000       4.00000000       0.00308828       0.00406830       0.00568069
Zr       1.50785658      10.27532243       6.12753614        8       4.00000000       4.00000000       0.00159895       0.00336287       0.00397692
Zr       1.51376815      10.28613048       2.04733796        8       4.00000000       4.00000000       0.00125529       0.00236764       0.00255688
Zr       4.35308703       1.43521046       6.13127644        8       4.00000000       4.00000000       0.00241756       0.00524118       0.00420367
Zr       4.47336923       7.32284595       6.14051329        8       4.00000000       4.00000000      -0.00336380       0.00548983       0.00198453
Zr       1.43791889       4.39722117       2.03840811        8       4.00000000       4.00000000      -0.00095824       0.00083415       0.00246914
Zr       1.43655377       4.40128421       6.12154417        8       4.00000000       4.00000000      -0.00108355       0.00357271       0.00411743
Zr       4.47840721       7.31641746       2.03691564        8       4.00000000       4.00000000      -0.00425640       0.00369367       0.00268706
O        4.50132826       1.86852872      -0.00221758       16      -2.00000000      -2.00000000       0.01685781       0.00620793      -0.00020283
O        1.27919571       9.95258766       0.00375597       16      -2.00000000      -2.00000000       0.00569328      -0.01205693      -0.00153297
O        4.27016148       7.74184485       0.00324556       16      -2.00000000      -2.00000000      -0.00443812       0.00137563      -0.00075845
O        1.64673948       4.05192112      -0.00039849       16      -2.00000000      -2.00000000      -0.01110220      -0.01035912      -0.00127442
O        4.67272502       1.13454353       4.09206824       20      -2.00000000      -2.00000000       0.00685348      -0.02067377      -0.00182233
O        1.13724189      10.65721414       4.09191865       20      -2.00000000      -2.00000000       0.00359759       0.00591720      -0.00230548
O        4.13510563       7.03214455       4.09135842       20      -2.00000000      -2.00000000      -0.01037172      -0.01619966      -0.00175447
O        1.77750129       4.78927622       4.09283236       20      -2.00000000      -2.00000000       0.00124579       0.00439037      -0.00194546
O        3.08923243       3.05792455       2.33103514       24      -2.00000000      -2.00000000       0.01016409       0.00548545      -0.00628482
O        2.76895644       8.71607699       5.88566929       24      -2.00000000      -2.00000000       0.00075536      -0.00115277      -0.01156696
O        2.74335465       8.68893577       2.29558286       24      -2.00000000      -2.00000000      -0.00997894      -0.00991088      -0.00274047
O        3.18283728       3.13611031       5.90918284       24      -2.00000000      -2.00000000      -0.00953572      -0.00891134      -0.01306498
O        5.66401610       8.98463135       5.90801622       24      -2.00000000      -2.00000000       0.00969698      -0.00913972      -0.01720315
O        0.10994337       2.88289575       2.33526504       24      -2.00000000      -2.00000000       0.01690431      -0.01738748       0.00339353
O        0.20525816       2.79407196       5.89858837       24      -2.00000000      -2.00000000      -0.00308519       0.00265930      -0.02616128
O        5.63855748       9.01350587       2.27063132       24      -2.00000000      -2.00000000      -0.00202253      -0.00185472       0.00072833
O        2.96242629       5.89175036       1.67793876       32      -2.00000000      -2.00000000       0.00146587      -0.00858319      -0.01813043
O        2.92611741       5.92226615       6.51943121       32      -2.00000000      -2.00000000      -0.00374644      -0.00310627       0.00244107
O       -0.03372989       0.00594342       6.52648044       32      -2.00000000      -2.00000000       0.00625823      -0.00069756       0.00093958
O        0.02694078       0.06025988       1.68319926       32      -2.00000000      -2.00000000      -0.01053099      -0.01734856      -0.02505026
O        2.92209235       0.00169720       1.90004858       36      -2.00000000      -2.00000000       0.00216271       0.00013182      -0.02412863
O        2.84357252       0.07318127       6.30505402       36      -2.00000000      -2.00000000       0.01217588      -0.00652462      -0.00026141
O        0.01073270       5.87210791       6.31510164       36      -2.00000000      -2.00000000      -0.00944826      -0.00434339      -0.00447638
O        0.07662485       5.94025041       1.88887760       36      -2.00000000      -2.00000000      -0.00957646      -0.00759789      -0.00869825
40