40
Lattice="5.871972 0.0 0.0 0.0 11.774171 0.0 0.0 0.0 8.178836" Properties=species:S:1:pos:R:3:spacegroup_kinds:I:1:field_charges:R:1:initial_charges:R:1:forces:R:3 spacegroup="P b a m" unit_cell=conventional occupancy="_JSON {\"0\": {\"Pb\": 1.0}, \"1\": {\"Pb\": 1.0}, \"2\": {\"Pb\": 1.0}, \"3\": {\"Pb\": 1.0}, \"4\": {\"Pb\": 1.0}, \"5\": {\"Pb\": 1.0}, \"6\": {\"Pb\": 1.0}, \"7\": {\"Pb\": 1.0}, \"8\": {\"Zr\": 1.0}, \"9\": {\"Zr\": 1.0}, \"10\": {\"Zr\": 1.0}, \"11\": {\"Zr\": 1.0}, \"12\": {\"Zr\": 1.0}, \"13\": {\"Zr\": 1.0}, \"14\": {\"Zr\": 1.0}, \"15\": {\"Zr\": 1.0}, \"16\": {\"O\": 1.0}, \"17\": {\"O\": 1.0}, \"18\": {\"O\": 1.0}, \"19\": {\"O\": 1.0}, \"20\": {\"O\": 1.0}, \"21\": {\"O\": 1.0}, \"22\": {\"O\": 1.0}, \"23\": {\"O\": 1.0}, \"24\": {\"O\": 1.0}, \"25\": {\"O\": 1.0}, \"26\": {\"O\": 1.0}, \"27\": {\"O\": 1.0}, \"28\": {\"O\": 1.0}, \"29\": {\"O\": 1.0}, \"30\": {\"O\": 1.0}, \"31\": {\"O\": 1.0}, \"32\": {\"O\": 1.0}, \"33\": {\"O\": 1.0}, \"34\": {\"O\": 1.0}, \"35\": {\"O\": 1.0}, \"36\": {\"O\": 1.0}, \"37\": {\"O\": 1.0}, \"38\": {\"O\": 1.0}, \"39\": {\"O\": 1.0}}" neb_image=0 energy=-39205.764739708866 polarization_c_per_m2="_JSON [-0.0012611573750599988, 0.0349032942069816, -1.3526432333244794e-15]" pbc="T T T"
Pb       1.17373646       1.45287285      -0.00000000        0       2.00000000       2.00000000       0.01811033      -0.02203254      -0.00000000
Pb       4.69823554      10.32129815      -0.00000000        0       2.00000000       2.00000000       0.02886545      -0.02506414      -0.00000000
Pb       1.76224954       7.33995835      -0.00000000        0       2.00000000       2.00000000       0.02886545      -0.02203254      -0.00000000
Pb       4.10972246       4.43421265      -0.00000000        0       2.00000000       2.00000000       0.01811033      -0.02506414      -0.00000000
Pb       1.22777814       1.51267559       4.08941800        4       2.00000000       2.00000000       0.01833476      -0.01928032       0.00000000
Pb       4.64419386      10.26149541       4.08941800        4       2.00000000       2.00000000       0.02864101      -0.02781637       0.00000000
Pb       1.70820786       7.39976109       4.08941800        4       2.00000000       2.00000000       0.02864101      -0.01928032       0.00000000
Pb       4.16376414       4.37440991       4.08941800        4       2.00000000       2.00000000       0.01833476      -0.02781637       0.00000000
Zr       4.35630128       1.46381254       2.04209901        8       4.00000000       4.00000000       0.04074979      -0.05115421       0.00128299
Zr       1.51567072      10.31035846       6.13673699        8       4.00000000       4.00000000       0.05320176      -0.04303916      -0.00128299
Zr       1.51567072      10.31035846       2.04209901        8       4.00000000       4.00000000       0.05320176      -0.04303916       0.00128299
Zr       4.35630128       1.46381254       6.13673699        8       4.00000000       4.00000000       0.04074979      -0.05115421      -0.00128299
Zr       4.45165672       7.35089804       6.13673699        8       4.00000000       4.00000000       0.05320176      -0.05115421      -0.00128299
Zr       1.42031528       4.42327296       2.04209901        8       4.00000000       4.00000000       0.04074979      -0.04303916       0.00128299
Zr       1.42031528       4.42327296       6.13673699        8       4.00000000       4.00000000       0.04074979      -0.04303916      -0.00128299
Zr       4.45165672       7.35089804       2.04209901        8       4.00000000       4.00000000       0.05320176      -0.05115421       0.00128299
O        4.55672239       1.85661981      -0.00000000       16      -2.00000000      -2.00000000      -0.01967453       0.01834648       0.00000000
O        1.31524961       9.91755119      -0.00000000       16      -2.00000000      -2.00000000      -0.02730124       0.02875020       0.00000000
O        4.25123561       7.74370531      -0.00000000       16      -2.00000000      -2.00000000      -0.02730124       0.01834648       0.00000000
O        1.62073639       4.03046569      -0.00000000       16      -2.00000000      -2.00000000      -0.01967453       0.02875020       0.00000000
O        4.70256932       1.10550087       4.08941800       20      -2.00000000      -2.00000000      -0.01760133       0.03098644      -0.00000000
O        1.16940268      10.66867013       4.08941800       20      -2.00000000      -2.00000000      -0.02937445       0.01611025      -0.00000000
O        4.10538868       6.99258637       4.08941800       20      -2.00000000      -2.00000000      -0.02937445       0.03098644      -0.00000000
O        1.76658332       4.78158463       4.08941800       20      -2.00000000      -2.00000000      -0.01760133       0.01611025      -0.00000000
O        3.12999853       3.08379167       2.30409508       24      -2.00000000      -2.00000000      -0.03345472       0.03894801      -0.00556508
O        2.74197347       8.69037933       5.87474092       24      -2.00000000      -2.00000000      -0.01352106       0.00814867       0.00556508
O        2.74197347       8.69037933       2.30409508       24      -2.00000000      -2.00000000      -0.01352106       0.00814867      -0.00556508
O        3.12999853       3.08379167       5.87474092       24      -2.00000000      -2.00000000      -0.03345472       0.03894801       0.00556508
O        5.67795947       8.97087717       5.87474092       24      -2.00000000      -2.00000000      -0.01352106       0.03894801       0.00556508
O        0.19401253       2.80329383       2.30409508       24      -2.00000000      -2.00000000      -0.03345472       0.00814867      -0.00556508
O        0.19401253       2.80329383       5.87474092       24      -2.00000000      -2.00000000      -0.03345472       0.00814867       0.00556508
O        5.67795947       8.97087717       2.30409508       24      -2.00000000      -2.00000000      -0.01352106       0.03894801      -0.00556508
O        2.93598600       5.88708550       1.65175084       32      -2.00000000      -2.00000000      -0.02348789       0.02354834       0.00096873
O        2.93598600       5.88708550       6.52708516       32      -2.00000000      -2.00000000      -0.02348789       0.02354834      -0.00096873
O        0.00000000       0.00000000       6.52708516       32      -2.00000000      -2.00000000      -0.02348789       0.02354834      -0.00096873
O       -0.00000000       0.00000000       1.65175084       32      -2.00000000      -2.00000000      -0.02348789       0.02354834       0.00096873
O        2.93598600       0.00000000       1.87160782       36      -2.00000000      -2.00000000      -0.02348789       0.02354834       0.00119428
O        2.93598600       0.00000000       6.30722818       36      -2.00000000      -2.00000000      -0.02348789       0.02354834      -0.00119428
O        0.00000000       5.88708550       6.30722818       36      -2.00000000      -2.00000000      -0.02348789       0.02354834      -0.00119428
O        0.00000000       5.88708550       1.87160782       36      -2.00000000      -2.00000000      -0.02348789       0.02354834       0.00119428
40
Lattice="5.8694775790515274 0.0 0.0 -0.0044637478820605215 11.765859088808792 0.0 8.474900953983763e-05 2.4723847985134675e-06 8.171553494652239" Properties=species:S:1:pos:R:3:spacegroup_kinds:I:1:field_charges:R:1:initial_charges:R:1:forces:R:3 spacegroup="P b a m" unit_cell=conventional occupancy="_JSON {\"0\": {\"Pb\": 1.0}, \"1\": {\"Pb\": 1.0}, \"2\": {\"Pb\": 1.0}, \"3\": {\"Pb\": 1.0}, \"4\": {\"Pb\": 1.0}, \"5\": {\"Pb\": 1.0}, \"6\": {\"Pb\": 1.0}, \"7\": {\"Pb\": 1.0}, \"8\": {\"Zr\": 1.0}, \"9\": {\"Zr\": 1.0}, \"10\": {\"Zr\": 1.0}, \"11\": {\"Zr\": 1.0}, \"12\": {\"Zr\": 1.0}, \"13\": {\"Zr\": 1.0}, \"14\": {\"Zr\": 1.0}, \"15\": {\"Zr\": 1.0}, \"16\": {\"O\": 1.0}, \"17\": {\"O\": 1.0}, \"18\": {\"O\": 1.0}, \"19\": {\"O\": 1.0}, \"20\": {\"O\": 1.0}, \"21\": {\"O\": 1.0}, \"22\": {\"O\": 1.0}, \"23\": {\"O\": 1.0}, \"24\": {\"O\": 1.0}, \"25\": {\"O\": 1.0}, \"26\": {\"O\": 1.0}, \"27\": {\"O\": 1.0}, \"28\": {\"O\": 1.0}, \"29\": {\"O\": 1.0}, \"30\": {\"O\": 1.0}, \"31\": {\"O\": 1.0}, \"32\": {\"O\": 1.0}, \"33\": {\"O\": 1.0}, \"34\": {\"O\": 1.0}, \"35\": {\"O\": 1.0}, \"36\": {\"O\": 1.0}, \"37\": {\"O\": 1.0}, \"38\": {\"O\": 1.0}, \"39\": {\"O\": 1.0}}" neb_image=1 energy=-39205.78189646717 polarization_c_per_m2="_JSON [0.020072395514304998, -0.006369388029501409, -4.113437708676243e-05]" pbc="T T T"
Pb       1.19151925       1.41411169      -0.00083439        0       2.00000000       2.00000000       0.00443994      -0.00907737       0.00007847
Pb       4.70511701      10.27892222       0.00081277        0       2.00000000       2.00000000       0.00287859      -0.00829416      -0.00007565
Pb       1.76990354       7.30737985       0.00078811        0       2.00000000       2.00000000       0.00256329      -0.00653813      -0.00007374
Pb       4.11724979       4.39962864      -0.00091325        0       2.00000000       2.00000000       0.00243341      -0.00757453       0.00008523
Pb       1.22296740       1.49303983       4.08546651        4       2.00000000       2.00000000      -0.00107039      -0.00440817       0.00002845
Pb       4.63436335      10.23457035       4.08601616        4       2.00000000       2.00000000      -0.00106314      -0.00475355      -0.00002161
Pb       1.72819909       7.36639642       4.08602851        4       2.00000000       2.00000000       0.00563686      -0.00660524      -0.00002176
Pb       4.18517870       4.34298309       4.08548131        4       2.00000000       2.00000000       0.00587232      -0.00666093       0.00002784
Zr       4.35607818       1.45202609       2.03677943        8       4.00000000       4.00000000       0.00039149      -0.00255542      -0.00080193
Zr       1.51471038      10.29148881       6.12781164        8       4.00000000       4.00000000       0.00076486      -0.00270955      -0.00085344
Zr       1.51481455      10.29167343       2.04387897        8       4.00000000       4.00000000       0.00075088      -0.00272747       0.00084037
Zr       4.35598906       1.45182858       6.13458990        8       4.00000000       4.00000000       0.00040385      -0.00253670       0.00081834
Zr       4.45923835       7.33240607       6.13421510        8       4.00000000       4.00000000       0.00292896      -0.00318413       0.00068961
Zr       1.42821272       4.40716117       2.04305696        8       4.00000000       4.00000000       0.00236543      -0.00302453       0.00069969
Zr       1.42810338       4.40735457       6.12832457        8       4.00000000       4.00000000       0.00237945      -0.00304286      -0.00068332
Zr       4.45934773       7.33220474       2.03749017        8       4.00000000       4.00000000       0.00291434      -0.00316503      -0.00070282
O        4.53419583       1.87296417      -0.00004469       16      -2.00000000      -2.00000000      -0.00480514       0.00408828       0.00000382
O        1.29516254       9.93136932       0.00004044       16      -2.00000000      -2.00000000      -0.00375346       0.00487791      -0.00000406
O        4.25024430       7.74395761       0.00004572       16      -2.00000000      -2.00000000       0.00106733       0.00130474      -0.00000411
O        1.62298449       4.03684842      -0.00004228       16      -2.00000000      -2.00000000       0.00125357       0.00217603       0.00000388
O        4.68409746       1.11431924       4.08579622       20      -2.00000000      -2.00000000      -0.00388767       0.00219790      -0.00000200
O        1.14991993      10.66863863       4.08576559       20      -2.00000000      -2.00000000      -0.00352855       0.00174288       0.00000105
O        4.10811973       7.00346924       4.08576713       20      -2.00000000      -2.00000000       0.00181328       0.00371269       0.00000121
O        1.76965737       4.78885751       4.08579919       20      -2.00000000      -2.00000000       0.00140413       0.00241930      -0.00000200
O        3.13134261       3.09370662       2.29879605       24      -2.00000000      -2.00000000       0.00120048       0.00312775      -0.00093757
O        2.74628780       8.69561064       5.86930643       24      -2.00000000      -2.00000000       0.00203920       0.00266775      -0.00002519
O        2.74515238       8.69453483       2.30174621       24      -2.00000000      -2.00000000       0.00214023       0.00276623       0.00007305
O        3.13258955       3.09487772       5.87346227       24      -2.00000000      -2.00000000       0.00108720       0.00301815       0.00087258
O        5.66117336       8.98092582       5.88253665       24      -2.00000000      -2.00000000      -0.00270964       0.00397995       0.00310251
O        0.17613826       2.81664933       2.31274172       24      -2.00000000      -2.00000000      -0.00376062       0.00343802       0.00243212
O        0.17736771       2.81548433       5.85940517       24      -2.00000000      -2.00000000      -0.00387284       0.00354655      -0.00248952
O        5.66004348       8.98197312       2.28844812       24      -2.00000000      -2.00000000      -0.00260888       0.00388254      -0.00305074
O        2.92701735       5.90148825       1.65360619       32      -2.00000000      -2.00000000      -0.00144211       0.00456647       0.00084172
O        2.92602560       5.90231416       6.51791965       32      -2.00000000      -2.00000000      -0.00134503       0.00449019      -0.00084073
O       -0.00723105       0.01242352       6.52024882       32      -2.00000000      -2.00000000      -0.00167473       0.00301325      -0.00024984
O       -0.00625879       0.01322904       1.65137063       32      -2.00000000      -2.00000000      -0.00176938       0.00293862       0.00024505
O        2.90255182       0.02462989       1.86878058       36      -2.00000000      -2.00000000      -0.00803166       0.00616451      -0.00034170
O        2.90104271       0.02606182       6.30273628       36      -2.00000000      -2.00000000      -0.00788671       0.00603154       0.00034267
O        0.00572054       5.88326975       6.30131057       36      -2.00000000      -2.00000000       0.00231502       0.00042133      -0.00009884
O        0.00726749       5.88472459       1.87032077       36      -2.00000000      -2.00000000       0.00216585       0.00028522       0.00009291
40
Lattice="5.870101908641497 0.0 0.0 -0.005889431436623445 11.765239405401227 0.0 0.002671048024893356 0.00017572040677483377 8.17242876451281" Properties=species:S:1:pos:R:3:spacegroup_kinds:I:1:field_charges:R:1:initial_charges:R:1:forces:R:3 spacegroup="P b a m" unit_cell=conventional occupancy="_JSON {\"0\": {\"Pb\": 1.0}, \"1\": {\"Pb\": 1.0}, \"2\": {\"Pb\": 1.0}, \"3\": {\"Pb\": 1.0}, \"4\": {\"Pb\": 1.0}, \"5\": {\"Pb\": 1.0}, \"6\": {\"Pb\": 1.0}, \"7\": {\"Pb\": 1.0}, \"8\": {\"Zr\": 1.0}, \"9\": {\"Zr\": 1.0}, \"10\": {\"Zr\": 1.0}, \"11\": {\"Zr\": 1.0}, \"12\": {\"Zr\": 1.0}, \"13\": {\"Zr\": 1.0}, \"14\": {\"Zr\": 1.0}, \"15\": {\"Zr\": 1.0}, \"16\": {\"O\": 1.0}, \"17\": {\"O\": 1.0}, \"18\": {\"O\": 1.0}, \"19\": {\"O\": 1.0}, \"20\": {\"O\": 1.0}, \"21\": {\"O\": 1.0}, \"22\": {\"O\": 1.0}, \"23\": {\"O\": 1.0}, \"24\": {\"O\": 1.0}, \"25\": {\"O\": 1.0}, \"26\": {\"O\": 1.0}, \"27\": {\"O\": 1.0}, \"28\": {\"O\": 1.0}, \"29\": {\"O\": 1.0}, \"30\": {\"O\": 1.0}, \"31\": {\"O\": 1.0}, \"32\": {\"O\": 1.0}, \"33\": {\"O\": 1.0}, \"34\": {\"O\": 1.0}, \"35\": {\"O\": 1.0}, \"36\": {\"O\": 1.0}, \"37\": {\"O\": 1.0}, \"38\": {\"O\": 1.0}, \"39\": {\"O\": 1.0}}" neb_image=2 energy=-39205.78175819159 polarization_c_per_m2="_JSON [0.02301177827417417, -0.022587120904391404, -0.003825823035751248]" pbc="T T T"
Pb       1.19749073       1.39810248      -0.03038249        0       2.00000000       2.00000000      -0.00002786       0.00062734       0.00455433
Pb       4.70541595      10.26444496       0.02598454        0       2.00000000       2.00000000      -0.00067040       0.00221293      -0.00126842
Pb       1.77099540       7.29493576       0.02504213        0       2.00000000       2.00000000      -0.00016691       0.00158739      -0.00140770
Pb       4.11849495       4.38325219      -0.03313625        0       2.00000000       2.00000000      -0.00020043       0.00197466       0.00412078
Pb       1.21752299       1.48442706       4.07284170        4       2.00000000       2.00000000       0.00111738       0.00147093       0.00300026
Pb       4.62918297      10.22455511       4.09266867        4       2.00000000       2.00000000       0.00103713       0.00097354       0.00050656
Pb       1.73970824       7.35610324       4.09325583        4       2.00000000       2.00000000      -0.00145558       0.00097631       0.00034197
Pb       4.19510519       4.33282302       4.07390068        4       2.00000000       2.00000000      -0.00012303       0.00147969       0.00247775
Zr       4.35668310       1.45162602       2.03204751        8       4.00000000       4.00000000       0.00012746       0.00031077       0.00088830
Zr       1.51111544      10.28430304       6.12866305        8       4.00000000       4.00000000       0.00055070       0.00065017       0.00030829
Zr       1.51500321      10.29058045       2.04753650        8       4.00000000       4.00000000      -0.00018098      -0.00009620      -0.00015372
Zr       4.35388062       1.44497588       6.13261607        8       4.00000000       4.00000000       0.00056100       0.00091442       0.00070179
Zr       4.46239552       7.33072549       6.13855222        8       4.00000000       4.00000000      -0.00011421       0.00018465      -0.00018956
Zr       1.43361165       4.40017448       2.04120539        8       4.00000000       4.00000000      -0.00016938       0.00055796       0.00051141
Zr       1.43024915       4.40639975       6.12442836        8       4.00000000       4.00000000      -0.00003845       0.00015260       0.00072900
Zr       4.46622125       7.32410499       2.03865872        8       4.00000000       4.00000000      -0.00057419       0.00063865       0.00006786
O        4.52091300       1.87557884      -0.00164912       16      -2.00000000      -2.00000000       0.00267856       0.00054109       0.00019457
O        1.28988777       9.93865748       0.00145411       16      -2.00000000      -2.00000000      -0.00056985      -0.00138812      -0.00025751
O        4.25587966       7.74388581       0.00175837       16      -2.00000000      -2.00000000       0.00021326      -0.00010313      -0.00026690
O        1.63024458       4.04121353      -0.00135491       16      -2.00000000      -2.00000000      -0.00144668      -0.00110774       0.00007216
O        4.67806432       1.11810904       4.08701312       20      -2.00000000      -2.00000000       0.00034314      -0.00131522      -0.00019057
O        1.14482658      10.66949805       4.08615133       20      -2.00000000      -2.00000000       0.00113347       0.00048763      -0.00017974
O        4.11778826       7.00907031       4.08631176       20      -2.00000000      -2.00000000      -0.00173227      -0.00104893      -0.00021124
O        1.77327969       4.78915830       4.08721453       20      -2.00000000      -2.00000000       0.00052319       0.00035833      -0.00019028
O        3.11342606       3.07812844       2.31034602       24      -2.00000000      -2.00000000       0.00326810       0.00264890      -0.00205155
O        2.77169809       8.72050803       5.86142299       24      -2.00000000      -2.00000000      -0.00156922      -0.00183241       0.00061125
O        2.73604640       8.68591282       2.29713890       24      -2.00000000      -2.00000000       0.00012869       0.00026896      -0.00079611
O        3.15979326       3.12084694       5.88918329       24      -2.00000000      -2.00000000      -0.00303807      -0.00286336      -0.00188276
O        5.67719897       8.96856016       5.87967597       24      -2.00000000      -2.00000000      -0.00027685       0.00017767      -0.00169371
O        0.14839344       2.84399745       2.32506078       24      -2.00000000      -2.00000000       0.00428394      -0.00407886      -0.00065274
O        0.19424903       2.80069953       5.86961657       24      -2.00000000      -2.00000000      -0.00227442       0.00208399      -0.00303775
O        5.64166289       9.00194420       2.27567060       24      -2.00000000      -2.00000000       0.00137179      -0.00183153       0.00169514
O        2.94375995       5.89498303       1.65865050       32      -2.00000000      -2.00000000      -0.00161832       0.00057066      -0.00179912
O        2.91035850       5.92293746       6.51423384       32      -2.00000000      -2.00000000       0.00124657      -0.00175947       0.00062493
O       -0.02697019       0.00266868       6.52188849       32      -2.00000000      -2.00000000       0.00176434       0.00060105      -0.00039490
O        0.00732068       0.03110627       1.65532979       32      -2.00000000      -2.00000000      -0.00266646      -0.00300350      -0.00153646
O        2.91411999       0.01175843       1.87046348       36      -2.00000000      -2.00000000      -0.00251309       0.00258744      -0.00296796
O        2.86192962       0.06115583       6.30184014       36      -2.00000000      -2.00000000       0.00359648      -0.00286364       0.00131758
O       -0.01031164       5.86283864       6.30429648       36      -2.00000000      -2.00000000       0.00104913       0.00142978      -0.00134510
O        0.04192608       5.91236942       1.87326040       36      -2.00000000      -2.00000000      -0.00356765      -0.00317542      -0.00025014
40
Lattice="5.871767982018349 0.0 0.0 0.00024596580697016024 11.762081003553101 0.0 0.00479992684785505 0.0004851563886608189 8.176590371434264" Properties=species:S:1:pos:R:3:spacegroup_kinds:I:1:field_charges:R:1:initial_charges:R:1:forces:R:3 spacegroup="P b a m" unit_cell=conventional occupancy="_JSON {\"0\": {\"Pb\": 1.0}, \"1\": {\"Pb\": 1.0}, \"2\": {\"Pb\": 1.0}, \"3\": {\"Pb\": 1.0}, \"4\": {\"Pb\": 1.0}, \"5\": {\"Pb\": 1.0}, \"6\": {\"Pb\": 1.0}, \"7\": {\"Pb\": 1.0}, \"8\": {\"Zr\": 1.0}, \"9\": {\"Zr\": 1.0}, \"10\": {\"Zr\": 1.0}, \"11\": {\"Zr\": 1.0}, \"12\": {\"Zr\": 1.0}, \"13\": {\"Zr\": 1.0}, \"14\": {\"Zr\": 1.0}, \"15\": {\"Zr\": 1.0}, \"16\": {\"O\": 1.0}, \"17\": {\"O\": 1.0}, \"18\": {\"O\": 1.0}, \"19\": {\"O\": 1.0}, \"20\": {\"O\": 1.0}, \"21\": {\"O\": 1.0}, \"22\": {\"O\": 1.0}, \"23\": {\"O\": 1.0}, \"24\": {\"O\": 1.0}, \"25\": {\"O\": 1.0}, \"26\": {\"O\": 1.0}, \"27\": {\"O\": 1.0}, \"28\": {\"O\": 1.0}, \"29\": {\"O\": 1.0}, \"30\": {\"O\": 1.0}, \"31\": {\"O\": 1.0}, \"32\": {\"O\": 1.0}, \"33\": {\"O\": 1.0}, \"34\": {\"O\": 1.0}, \"35\": {\"O\": 1.0}, \"36\": {\"O\": 1.0}, \"37\": {\"O\": 1.0}, \"38\": {\"O\": 1.0}, \"39\": {\"O\": 1.0}}" neb_image=3 energy=-39205.775786854996 polarization_c_per_m2="_JSON [0.022409968045171487, -0.03389477786859496, -0.015951069057046373]" pbc="T T T"
Pb       1.19964633       1.39362724      -0.06735020        0       2.00000000       2.00000000      -0.00243218       0.00294084       0.01545235
Pb       4.71474642      10.24789761       0.04167507        0       2.00000000       2.00000000      -0.00274267       0.01132604       0.00514748
Pb       1.77811264       7.28504659       0.04199208        0       2.00000000       2.00000000      -0.00166594       0.00855448       0.00071360
Pb       4.12418970       4.37010189      -0.06770695        0       2.00000000       2.00000000      -0.00113129       0.01130414       0.01140137
Pb       1.21212820       1.47487678       4.05226772        4       2.00000000       2.00000000       0.00489481       0.00968292       0.01563157
Pb       4.63097410      10.21636830       4.09451568        4       2.00000000       2.00000000       0.00481473       0.00592589       0.00532997
Pb       1.75341201       7.34722123       4.09614461        4       2.00000000       2.00000000      -0.00764843       0.00536924       0.00432202
Pb       4.20034686       4.32167904       4.05778412        4       2.00000000       2.00000000      -0.00055612       0.00858652       0.00869789
Zr       4.35884874       1.45024806       2.02633009        8       4.00000000       4.00000000       0.00096357       0.00245236       0.00377654
Zr       1.51403002      10.27636128       6.13066536        8       4.00000000       4.00000000       0.00149715       0.00237300       0.00241686
Zr       1.52262056      10.28896885       2.05005811        8       4.00000000       4.00000000       0.00001976       0.00094404       0.00047433
Zr       4.35315131       1.43803907       6.13048303        8       4.00000000       4.00000000       0.00157401       0.00320197       0.00265129
Zr       4.46970808       7.32832605       6.14343795        8       4.00000000       4.00000000      -0.00159036       0.00263474       0.00003991
Zr       1.43918912       4.39497593       2.03822310        8       4.00000000       4.00000000       0.00001025       0.00158610       0.00146303
Zr       1.43449576       4.40545844       6.12228113        8       4.00000000       4.00000000      -0.00043465       0.00206741       0.00270820
Zr       4.47690040       7.31706143       2.04042254        8       4.00000000       4.00000000      -0.00232722       0.00219595       0.00105570
O        4.50556705       1.87118743      -0.00335908       16      -2.00000000      -2.00000000       0.01442900       0.00320270       0.00030964
O        1.29609432       9.94509765       0.00349769       16      -2.00000000      -2.00000000      -0.00078062      -0.00792840      -0.00097342
O        4.26389082       7.74174718       0.00392683       16      -2.00000000      -2.00000000       0.00053242      -0.00026837      -0.00078971
O        1.64072728       4.04706672      -0.00217906       16      -2.00000000      -2.00000000      -0.00737069      -0.00655914      -0.00029773
O        4.67699829       1.12642516       4.09037944       20      -2.00000000      -2.00000000       0.00271138      -0.00928368      -0.00094304
O        1.14642868      10.66324131       4.08928692       20      -2.00000000      -2.00000000       0.00437293       0.00226914      -0.00114246
O        4.13349165       7.01631939       4.08955996       20      -2.00000000      -2.00000000      -0.00842813      -0.00672230      -0.00108204
O        1.77451272       4.78693791       4.09068857       20      -2.00000000      -2.00000000       0.00270700       0.00248389      -0.00079812
O        3.08849518       3.05376308       2.32866055       24      -2.00000000      -2.00000000       0.00896575       0.00602385      -0.00533043
O        2.79335293       8.73438529       5.86245333       24      -2.00000000      -2.00000000      -0.00372099      -0.00503404      -0.00026172
O        2.73419017       8.67500372       2.29648729       24      -2.00000000      -2.00000000      -0.00484531      -0.00432439      -0.00532804
O        3.18671405       3.14196523       5.90633004       24      -2.00000000      -2.00000000      -0.00805072      -0.00795883      -0.00686982
O        5.69233564       8.96009173       5.88869288       24      -2.00000000      -2.00000000       0.00298493      -0.00344480      -0.01113874
O        0.11639470       2.87622874       2.33367519       24      -2.00000000      -2.00000000       0.01410362      -0.01358583       0.00125755
O        0.21568745       2.78264086       5.89364382       24      -2.00000000      -2.00000000      -0.00419268       0.00414211      -0.01454321
O        5.63386284       9.01705087       2.26497494       24      -2.00000000      -2.00000000       0.00114666      -0.00384867       0.00427682
O        2.96609872       5.88385384       1.66987571       32      -2.00000000      -2.00000000      -0.00120431      -0.00297563      -0.01004018
O        2.90535211       5.93489875       6.51372599       32      -2.00000000      -2.00000000       0.00192254      -0.00546878       0.00342912
O       -0.04208838      -0.00510184       6.52651025       32      -2.00000000      -2.00000000       0.00466446      -0.00014334      -0.00101875
O        0.02965708       0.05474394       1.66816772       32      -2.00000000      -2.00000000      -0.00949351      -0.01271664      -0.01105949
O        2.93851580      -0.01172121       1.88859309       36      -2.00000000      -2.00000000      -0.00420943       0.00500646      -0.01570921
O        2.83368574       0.08620829       6.29808676       36      -2.00000000      -2.00000000       0.01060526      -0.00759086       0.00336844
O       -0.01788546       5.84681115       6.31357343       36      -2.00000000      -2.00000000      -0.00169132       0.00093658      -0.00534546
O        0.07847027       5.94011719       1.87897002       36      -2.00000000      -2.00000000      -0.00840365      -0.00735667      -0.00125210
40