40
Lattice="5.871972 0.0 0.0 0.0 11.774171 0.0 0.0 0.0 8.178836" Properties=species:S:1:pos:R:3:spacegroup_kinds:I:1:field_charges:R:1:initial_charges:R:1:forces:R:3 spacegroup="P b a m" unit_cell=conventional occupancy="_JSON {\"0\": {\"Pb\": 1.0}, \"1\": {\"Pb\": 1.0}, \"2\": {\"Pb\": 1.0}, \"3\": {\"Pb\": 1.0}, \"4\": {\"Pb\": 1.0}, \"5\": {\"Pb\": 1.0}, \"6\": {\"Pb\": 1.0}, \"7\": {\"Pb\": 1.0}, \"8\": {\"Zr\": 1.0}, \"9\": {\"Zr\": 1.0}, \"10\": {\"Zr\": 1.0}, \"11\": {\"Zr\": 1.0}, \"12\": {\"Zr\": 1.0}, \"13\": {\"Zr\": 1.0}, \"14\": {\"Zr\": 1.0}, \"15\": {\"Zr\": 1.0}, \"16\": {\"O\": 1.0}, \"17\": {\"O\": 1.0}, \"18\": {\"O\": 1.0}, \"19\": {\"O\": 1.0}, \"20\": {\"O\": 1.0}, \"21\": {\"O\": 1.0}, \"22\": {\"O\": 1.0}, \"23\": {\"O\": 1.0}, \"24\": {\"O\": 1.0}, \"25\": {\"O\": 1.0}, \"26\": {\"O\": 1.0}, \"27\": {\"O\": 1.0}, \"28\": {\"O\": 1.0}, \"29\": {\"O\": 1.0}, \"30\": {\"O\": 1.0}, \"31\": {\"O\": 1.0}, \"32\": {\"O\": 1.0}, \"33\": {\"O\": 1.0}, \"34\": {\"O\": 1.0}, \"35\": {\"O\": 1.0}, \"36\": {\"O\": 1.0}, \"37\": {\"O\": 1.0}, \"38\": {\"O\": 1.0}, \"39\": {\"O\": 1.0}}" neb_image=0 energy=-39205.764739708866 polarization_c_per_m2="_JSON [-0.0012611573750599988, 0.0349032942069816, -1.3526432333244794e-15]" pbc="T T T"
Pb       1.17373646       1.45287285      -0.00000000        0       2.00000000       2.00000000       0.01811033      -0.02203254      -0.00000000
Pb       4.69823554      10.32129815      -0.00000000        0       2.00000000       2.00000000       0.02886545      -0.02506414      -0.00000000
Pb       1.76224954       7.33995835      -0.00000000        0       2.00000000       2.00000000       0.02886545      -0.02203254      -0.00000000
Pb       4.10972246       4.43421265      -0.00000000        0       2.00000000       2.00000000       0.01811033      -0.02506414      -0.00000000
Pb       1.22777814       1.51267559       4.08941800        4       2.00000000       2.00000000       0.01833476      -0.01928032       0.00000000
Pb       4.64419386      10.26149541       4.08941800        4       2.00000000       2.00000000       0.02864101      -0.02781637       0.00000000
Pb       1.70820786       7.39976109       4.08941800        4       2.00000000       2.00000000       0.02864101      -0.01928032       0.00000000
Pb       4.16376414       4.37440991       4.08941800        4       2.00000000       2.00000000       0.01833476      -0.02781637       0.00000000
Zr       4.35630128       1.46381254       2.04209901        8       4.00000000       4.00000000       0.04074979      -0.05115421       0.00128299
Zr       1.51567072      10.31035846       6.13673699        8       4.00000000       4.00000000       0.05320176      -0.04303916      -0.00128299
Zr       1.51567072      10.31035846       2.04209901        8       4.00000000       4.00000000       0.05320176      -0.04303916       0.00128299
Zr       4.35630128       1.46381254       6.13673699        8       4.00000000       4.00000000       0.04074979      -0.05115421      -0.00128299
Zr       4.45165672       7.35089804       6.13673699        8       4.00000000       4.00000000       0.05320176      -0.05115421      -0.00128299
Zr       1.42031528       4.42327296       2.04209901        8       4.00000000       4.00000000       0.04074979      -0.04303916       0.00128299
Zr       1.42031528       4.42327296       6.13673699        8       4.00000000       4.00000000       0.04074979      -0.04303916      -0.00128299
Zr       4.45165672       7.35089804       2.04209901        8       4.00000000       4.00000000       0.05320176      -0.05115421       0.00128299
O        4.55672239       1.85661981      -0.00000000       16      -2.00000000      -2.00000000      -0.01967453       0.01834648       0.00000000
O        1.31524961       9.91755119      -0.00000000       16      -2.00000000      -2.00000000      -0.02730124       0.02875020       0.00000000
O        4.25123561       7.74370531      -0.00000000       16      -2.00000000      -2.00000000      -0.02730124       0.01834648       0.00000000
O        1.62073639       4.03046569      -0.00000000       16      -2.00000000      -2.00000000      -0.01967453       0.02875020       0.00000000
O        4.70256932       1.10550087       4.08941800       20      -2.00000000      -2.00000000      -0.01760133       0.03098644      -0.00000000
O        1.16940268      10.66867013       4.08941800       20      -2.00000000      -2.00000000      -0.02937445       0.01611025      -0.00000000
O        4.10538868       6.99258637       4.08941800       20      -2.00000000      -2.00000000      -0.02937445       0.03098644      -0.00000000
O        1.76658332       4.78158463       4.08941800       20      -2.00000000      -2.00000000      -0.01760133       0.01611025      -0.00000000
O        3.12999853       3.08379167       2.30409508       24      -2.00000000      -2.00000000      -0.03345472       0.03894801      -0.00556508
O        2.74197347       8.69037933       5.87474092       24      -2.00000000      -2.00000000      -0.01352106       0.00814867       0.00556508
O        2.74197347       8.69037933       2.30409508       24      -2.00000000      -2.00000000      -0.01352106       0.00814867      -0.00556508
O        3.12999853       3.08379167       5.87474092       24      -2.00000000      -2.00000000      -0.03345472       0.03894801       0.00556508
O        5.67795947       8.97087717       5.87474092       24      -2.00000000      -2.00000000      -0.01352106       0.03894801       0.00556508
O        0.19401253       2.80329383       2.30409508       24      -2.00000000      -2.00000000      -0.03345472       0.00814867      -0.00556508
O        0.19401253       2.80329383       5.87474092       24      -2.00000000      -2.00000000      -0.03345472       0.00814867       0.00556508
O        5.67795947       8.97087717       2.30409508       24      -2.00000000      -2.00000000      -0.01352106       0.03894801      -0.00556508
O        2.93598600       5.88708550       1.65175084       32      -2.00000000      -2.00000000      -0.02348789       0.02354834       0.00096873
O        2.93598600       5.88708550       6.52708516       32      -2.00000000      -2.00000000      -0.02348789       0.02354834      -0.00096873
O        0.00000000       0.00000000       6.52708516       32      -2.00000000      -2.00000000      -0.02348789       0.02354834      -0.00096873
O       -0.00000000       0.00000000       1.65175084       32      -2.00000000      -2.00000000      -0.02348789       0.02354834       0.00096873
O        2.93598600       0.00000000       1.87160782       36      -2.00000000      -2.00000000      -0.02348789       0.02354834       0.00119428
O        2.93598600       0.00000000       6.30722818       36      -2.00000000      -2.00000000      -0.02348789       0.02354834      -0.00119428
O        0.00000000       5.88708550       6.30722818       36      -2.00000000      -2.00000000      -0.02348789       0.02354834      -0.00119428
O        0.00000000       5.88708550       1.87160782       36      -2.00000000      -2.00000000      -0.02348789       0.02354834       0.00119428
40
Lattice="5.869489982700842 0.0 0.0 -0.004794297420018759 11.76588979138939 0.0 -3.92438940433247e-05 -5.288893009012452e-07 8.171523155957795" Properties=species:S:1:pos:R:3:spacegroup_kinds:I:1:field_charges:R:1:initial_charges:R:1:forces:R:3 spacegroup="P b a m" unit_cell=conventional occupancy="_JSON {\"0\": {\"Pb\": 1.0}, \"1\": {\"Pb\": 1.0}, \"2\": {\"Pb\": 1.0}, \"3\": {\"Pb\": 1.0}, \"4\": {\"Pb\": 1.0}, \"5\": {\"Pb\": 1.0}, \"6\": {\"Pb\": 1.0}, \"7\": {\"Pb\": 1.0}, \"8\": {\"Zr\": 1.0}, \"9\": {\"Zr\": 1.0}, \"10\": {\"Zr\": 1.0}, \"11\": {\"Zr\": 1.0}, \"12\": {\"Zr\": 1.0}, \"13\": {\"Zr\": 1.0}, \"14\": {\"Zr\": 1.0}, \"15\": {\"Zr\": 1.0}, \"16\": {\"O\": 1.0}, \"17\": {\"O\": 1.0}, \"18\": {\"O\": 1.0}, \"19\": {\"O\": 1.0}, \"20\": {\"O\": 1.0}, \"21\": {\"O\": 1.0}, \"22\": {\"O\": 1.0}, \"23\": {\"O\": 1.0}, \"24\": {\"O\": 1.0}, \"25\": {\"O\": 1.0}, \"26\": {\"O\": 1.0}, \"27\": {\"O\": 1.0}, \"28\": {\"O\": 1.0}, \"29\": {\"O\": 1.0}, \"30\": {\"O\": 1.0}, \"31\": {\"O\": 1.0}, \"32\": {\"O\": 1.0}, \"33\": {\"O\": 1.0}, \"34\": {\"O\": 1.0}, \"35\": {\"O\": 1.0}, \"36\": {\"O\": 1.0}, \"37\": {\"O\": 1.0}, \"38\": {\"O\": 1.0}, \"39\": {\"O\": 1.0}}" neb_image=1 energy=-39205.782036552984 polarization_c_per_m2="_JSON [0.02030681185497387, -0.007342040053112795, 4.481152311364191e-05]" pbc="T T T"
Pb       1.19186917       1.41310392       0.00039084        0       2.00000000       2.00000000       0.00414855      -0.00842666      -0.00004917
Pb       4.70485048      10.27829050      -0.00034135        0       2.00000000       2.00000000       0.00269945      -0.00774609       0.00001530
Pb       1.76978832       7.30660115      -0.00032962        0       2.00000000       2.00000000       0.00240008      -0.00609609       0.00001720
Pb       4.11713076       4.39859191       0.00042738        0       2.00000000       2.00000000       0.00232072      -0.00706167      -0.00005357
Pb       1.22253658       1.49253705       4.08592830        4       2.00000000       2.00000000      -0.00096531      -0.00413342      -0.00003640
Pb       4.63375338      10.23392628       4.08567396        4       2.00000000       2.00000000      -0.00100743      -0.00440507      -0.00000324
Pb       1.72861963       7.36589396       4.08567097        4       2.00000000       2.00000000       0.00522288      -0.00619441      -0.00000530
Pb       4.18561895       4.34251201       4.08591482        4       2.00000000       2.00000000       0.00549688      -0.00622380      -0.00002755
Zr       4.35578564       1.45170566       2.03684438        8       4.00000000       4.00000000       0.00037229      -0.00235835      -0.00076097
Zr       1.51432577      10.29142347       6.12760923        8       4.00000000       4.00000000       0.00068256      -0.00251907      -0.00078462
Zr       1.51427801      10.29133995       2.04386238        8       4.00000000       4.00000000       0.00068957      -0.00251021       0.00078254
Zr       4.35582057       1.45179454       6.13477301        8       4.00000000       4.00000000       0.00036930      -0.00236631       0.00074292
Zr       4.45931955       7.33198238       6.13418579        8       4.00000000       4.00000000       0.00267383      -0.00293665       0.00064253
Zr       1.42813098       4.40706063       2.04326263        8       4.00000000       4.00000000       0.00219244      -0.00281119       0.00063042
Zr       1.42817454       4.40697986       6.12834716        8       4.00000000       4.00000000       0.00218880      -0.00280776      -0.00064453
Zr       4.45927140       7.33206923       2.03727862        8       4.00000000       4.00000000       0.00268085      -0.00294235      -0.00064198
O        4.53351745       1.87323367       0.00001987       16      -2.00000000      -2.00000000      -0.00448547       0.00382580      -0.00000187
O        1.29448908       9.93175562      -0.00001911       16      -2.00000000      -2.00000000      -0.00347333       0.00456598       0.00000276
O        4.25043700       7.74401896      -0.00002111       16      -2.00000000      -2.00000000       0.00098456       0.00121785       0.00000300
O        1.62331321       4.03705625       0.00001760       16      -2.00000000      -2.00000000       0.00113752       0.00203076      -0.00000029
O        4.68352330       1.11454690       4.08575112       20      -2.00000000      -2.00000000      -0.00360952       0.00208272       0.00000193
O        1.14930687      10.66893490       4.08576338       20      -2.00000000      -2.00000000      -0.00327172       0.00163349       0.00000187
O        4.10831003       7.00364847       4.08576258       20      -2.00000000      -2.00000000       0.00171622       0.00346143       0.00000160
O        1.76974533       4.78881833       4.08574853       20      -2.00000000      -2.00000000       0.00130027       0.00225959       0.00000278
O        3.13254754       3.09510968       2.29797000       24      -2.00000000      -2.00000000       0.00103518       0.00280321      -0.00080836
O        2.74579481       8.69554501       5.86940617       24      -2.00000000      -2.00000000       0.00194238       0.00253241      -0.00002872
O        2.74626269       8.69599127       2.30230901       24      -2.00000000      -2.00000000       0.00192199       0.00250817       0.00003086
O        3.13195358       3.09456290       5.87320984       24      -2.00000000      -2.00000000       0.00111037       0.00286763       0.00086022
O        5.66011545       8.98177321       5.88294257       24      -2.00000000      -2.00000000      -0.00247515       0.00364392       0.00290249
O        0.17672266       2.81597372       2.31238430       24      -2.00000000      -2.00000000      -0.00357917       0.00329643       0.00230467
O        0.17613498       2.81652543       5.85884930       24      -2.00000000      -2.00000000      -0.00350403       0.00322394      -0.00226390
O        5.66058288       8.98133349       2.28880641       24      -2.00000000      -2.00000000      -0.00249531       0.00366776      -0.00290501
O        2.92586452       5.90270459       1.65380730       32      -2.00000000      -2.00000000      -0.00127111       0.00418490       0.00080143
O        2.92629461       5.90234657       6.51770817       32      -2.00000000      -2.00000000      -0.00130604       0.00421228      -0.00078922
O       -0.00710032       0.01303161       6.52016085       32      -2.00000000      -2.00000000      -0.00159104       0.00276159      -0.00023554
O       -0.00753672       0.01266626       1.65131019       32      -2.00000000      -2.00000000      -0.00154131       0.00280381       0.00025887
O        2.90022447       0.02658511       1.86861187       36      -2.00000000      -2.00000000      -0.00736786       0.00564651      -0.00027789
O        2.90089362       0.02595144       6.30290840       36      -2.00000000      -2.00000000      -0.00743288       0.00570407       0.00029261
O        0.00695091       5.88436296       6.30119449       36      -2.00000000      -2.00000000       0.00201576       0.00027384      -0.00007465
O        0.00627278       5.88371894       1.87027029       36      -2.00000000      -2.00000000       0.00207422       0.00033102       0.00009677
40
Lattice="5.870791961438283 0.0 0.0 -0.008399574483003382 11.76527149244256 0.0 0.003002858180678774 4.565859321209901e-05 8.172718935224283" Properties=species:S:1:pos:R:3:spacegroup_kinds:I:1:field_charges:R:1:initial_charges:R:1:forces:R:3 spacegroup="P b a m" unit_cell=conventional occupancy="_JSON {\"0\": {\"Pb\": 1.0}, \"1\": {\"Pb\": 1.0}, \"2\": {\"Pb\": 1.0}, \"3\": {\"Pb\": 1.0}, \"4\": {\"Pb\": 1.0}, \"5\": {\"Pb\": 1.0}, \"6\": {\"Pb\": 1.0}, \"7\": {\"Pb\": 1.0}, \"8\": {\"Zr\": 1.0}, \"9\": {\"Zr\": 1.0}, \"10\": {\"Zr\": 1.0}, \"11\": {\"Zr\": 1.0}, \"12\": {\"Zr\": 1.0}, \"13\": {\"Zr\": 1.0}, \"14\": {\"Zr\": 1.0}, \"15\": {\"Zr\": 1.0}, \"16\": {\"O\": 1.0}, \"17\": {\"O\": 1.0}, \"18\": {\"O\": 1.0}, \"19\": {\"O\": 1.0}, \"20\": {\"O\": 1.0}, \"21\": {\"O\": 1.0}, \"22\": {\"O\": 1.0}, \"23\": {\"O\": 1.0}, \"24\": {\"O\": 1.0}, \"25\": {\"O\": 1.0}, \"26\": {\"O\": 1.0}, \"27\": {\"O\": 1.0}, \"28\": {\"O\": 1.0}, \"29\": {\"O\": 1.0}, \"30\": {\"O\": 1.0}, \"31\": {\"O\": 1.0}, \"32\": {\"O\": 1.0}, \"33\": {\"O\": 1.0}, \"34\": {\"O\": 1.0}, \"35\": {\"O\": 1.0}, \"36\": {\"O\": 1.0}, \"37\": {\"O\": 1.0}, \"38\": {\"O\": 1.0}, \"39\": {\"O\": 1.0}}" neb_image=2 energy=-39205.78156933369 polarization_c_per_m2="_JSON [0.02306814256970891, -0.025731397759970104, -0.007147139480542511]" pbc="T T T"
Pb       1.19734877       1.39408283      -0.03084642        0       2.00000000       2.00000000       0.00078223       0.00102783       0.00640708
Pb       4.70396818      10.25924883       0.02090772        0       2.00000000       2.00000000      -0.00065969       0.00442510       0.00143094
Pb       1.77258213       7.29556237       0.02054535        0       2.00000000       2.00000000      -0.00167427       0.00189032       0.00050108
Pb       4.11778259       4.38290583      -0.03362078        0       2.00000000       2.00000000      -0.00006771       0.00389471       0.00590672
Pb       1.21378794       1.48375769       4.06991099        4       2.00000000       2.00000000       0.00261828       0.00298869       0.00643091
Pb       4.62600464      10.22451877       4.09003954        4       2.00000000       2.00000000       0.00133663       0.00225545       0.00197753
Pb       1.73905755       7.35315362       4.08972354        4       2.00000000       2.00000000      -0.00253136       0.00223271       0.00264929
Pb       4.19501865       4.32798436       4.07241360        4       2.00000000       2.00000000      -0.00053468       0.00358999       0.00382510
Zr       4.35555637       1.45015406       2.03104389        8       4.00000000       4.00000000       0.00083192       0.00089954       0.00154988
Zr       1.50861734      10.28312608       6.12779964        8       4.00000000       4.00000000       0.00085846       0.00114112       0.00083754
Zr       1.51214744      10.28935409       2.04710192        8       4.00000000       4.00000000       0.00021142       0.00026160       0.00026461
Zr       4.35361817       1.44382132       6.13292682        8       4.00000000       4.00000000       0.00102172       0.00160934       0.00107911
Zr       4.46319326       7.32945391       6.13770102        8       4.00000000       4.00000000      -0.00081307       0.00108267       0.00029884
Zr       1.43332589       4.40049834       2.04105278        8       4.00000000       4.00000000      -0.00045422       0.00043121       0.00075515
Zr       1.43083306       4.40541654       6.12410586        8       4.00000000       4.00000000      -0.00040825       0.00068829       0.00123503
Zr       4.46667953       7.32373387       2.03807410        8       4.00000000       4.00000000      -0.00133296       0.00111599       0.00050978
O        4.51875337       1.87494428      -0.00142409       16      -2.00000000      -2.00000000       0.00368605       0.00114615       0.00013330
O        1.28452759       9.94048764       0.00157499       16      -2.00000000      -2.00000000       0.00138135      -0.00263675      -0.00040647
O        4.25833089       7.74385923       0.00171059       16      -2.00000000      -2.00000000      -0.00149030       0.00019083      -0.00027259
O        1.63161456       4.04184168      -0.00097819       16      -2.00000000      -2.00000000      -0.00250127      -0.00208754      -0.00013290
O        4.67657148       1.11709432       4.08733633       20      -2.00000000      -2.00000000       0.00161804      -0.00340880      -0.00039237
O        1.14162058      10.66599646       4.08668551       20      -2.00000000      -2.00000000       0.00135296       0.00138818      -0.00049316
O        4.11757349       7.01500413       4.08667491       20      -2.00000000      -2.00000000      -0.00234496      -0.00356470      -0.00038436
O        1.77373379       4.79217947       4.08766054       20      -2.00000000      -2.00000000      -0.00014457       0.00051210      -0.00048203
O        3.10935440       3.07512073       2.31433991       24      -2.00000000      -2.00000000       0.00416269       0.00294931      -0.00269615
O        2.76310964       8.71348767       5.86975419       24      -2.00000000      -2.00000000      -0.00002758      -0.00054363      -0.00248191
O        2.73454871       8.68563828       2.29366990       24      -2.00000000      -2.00000000      -0.00117445      -0.00110309      -0.00008039
O        3.15681836       3.11734117       5.88731007       24      -2.00000000      -2.00000000      -0.00395076      -0.00345560      -0.00345688
O        5.66757171       8.97667911       5.88575504       24      -2.00000000      -2.00000000       0.00206343      -0.00184271      -0.00359218
O        0.14229735       2.84982413       2.32864203       24      -2.00000000      -2.00000000       0.00604182      -0.00605734      -0.00089948
O        0.18947393       2.80564764       5.86805155       24      -2.00000000      -2.00000000      -0.00242088       0.00203982      -0.00504258
O        5.63898160       9.00430397       2.27489528       24      -2.00000000      -2.00000000       0.00089414      -0.00180936       0.00096245
O        2.94741691       5.89283096       1.65964232       32      -2.00000000      -2.00000000      -0.00186358      -0.00027652      -0.00343637
O        2.91840945       5.91706788       6.51627827       32      -2.00000000      -2.00000000      -0.00061225      -0.00103522       0.00022081
O       -0.02286158       0.00743760       6.52165302       32      -2.00000000      -2.00000000       0.00233043       0.00028419      -0.00006044
O        0.00961707       0.03522490       1.65872340       32      -2.00000000      -2.00000000      -0.00305832      -0.00460776      -0.00455451
O        2.91308277       0.01154109       1.87264392       36      -2.00000000      -2.00000000      -0.00103857       0.00165385      -0.00497528
O        2.86520764       0.05650773       6.30348764       36      -2.00000000      -2.00000000       0.00455828      -0.00284637       0.00037818
O       -0.00054735       5.87167139       6.30448137       36      -2.00000000      -2.00000000      -0.00163420      -0.00026161      -0.00114764
O        0.04638079       5.91711299       1.87605458       36      -2.00000000      -2.00000000      -0.00501195      -0.00416199      -0.00236567
40
Lattice="5.875186855693255 0.0 0.0 -0.008268054826286264 11.763221803356258 0.0 0.005593350431888293 0.000534084051827383 8.178531561260275" Properties=species:S:1:pos:R:3:spacegroup_kinds:I:1:field_charges:R:1:initial_charges:R:1:forces:R:3 spacegroup="P b a m" unit_cell=conventional occupancy="_JSON {\"0\": {\"Pb\": 1.0}, \"1\": {\"Pb\": 1.0}, \"2\": {\"Pb\": 1.0}, \"3\": {\"Pb\": 1.0}, \"4\": {\"Pb\": 1.0}, \"5\": {\"Pb\": 1.0}, \"6\": {\"Pb\": 1.0}, \"7\": {\"Pb\": 1.0}, \"8\": {\"Zr\": 1.0}, \"9\": {\"Zr\": 1.0}, \"10\": {\"Zr\": 1.0}, \"11\": {\"Zr\": 1.0}, \"12\": {\"Zr\": 1.0}, \"13\": {\"Zr\": 1.0}, \"14\": {\"Zr\": 1.0}, \"15\": {\"Zr\": 1.0}, \"16\": {\"O\": 1.0}, \"17\": {\"O\": 1.0}, \"18\": {\"O\": 1.0}, \"19\": {\"O\": 1.0}, \"20\": {\"O\": 1.0}, \"21\": {\"O\": 1.0}, \"22\": {\"O\": 1.0}, \"23\": {\"O\": 1.0}, \"24\": {\"O\": 1.0}, \"25\": {\"O\": 1.0}, \"26\": {\"O\": 1.0}, \"27\": {\"O\": 1.0}, \"28\": {\"O\": 1.0}, \"29\": {\"O\": 1.0}, \"30\": {\"O\": 1.0}, \"31\": {\"O\": 1.0}, \"32\": {\"O\": 1.0}, \"33\": {\"O\": 1.0}, \"34\": {\"O\": 1.0}, \"35\": {\"O\": 1.0}, \"36\": {\"O\": 1.0}, \"37\": {\"O\": 1.0}, \"38\": {\"O\": 1.0}, \"39\": {\"O\": 1.0}}" neb_image=3 energy=-39205.77065229519 polarization_c_per_m2="_JSON [0.022588821724343407, -0.046901705866515306, -0.03228447876418865]" pbc="T T T"
Pb       1.19345549       1.38754332      -0.06531768        0       2.00000000       2.00000000       0.00176592       0.00048729       0.02341944
Pb       4.71146492      10.23258656       0.01127183        0       2.00000000       2.00000000      -0.00130754       0.01891709       0.01835048
Pb       1.78379509       7.28354051       0.01558878        0       2.00000000       2.00000000      -0.00694276       0.00763915       0.00994469
Pb       4.12071717       4.35947787      -0.06543928        0       2.00000000       2.00000000      -0.00198952       0.01896665       0.01959877
Pb       1.20098492       1.46707190       4.03738268        4       2.00000000       2.00000000       0.00791212       0.01815546       0.03345911
Pb       4.62334675      10.20981112       4.08091068        4       2.00000000       2.00000000       0.00426038       0.01208657       0.01128562
Pb       1.75638200       7.33950636       4.07651926        4       2.00000000       2.00000000      -0.01095376       0.01152514       0.01674818
Pb       4.20288488       4.30751714       4.05396098        4       2.00000000       2.00000000      -0.00196791       0.01714172       0.01272104
Zr       4.35445714       1.44476606       2.02395352        8       4.00000000       4.00000000       0.00323458       0.00417521       0.00583993
Zr       1.50694028      10.27532801       6.12717568        8       4.00000000       4.00000000       0.00156741       0.00350397       0.00419704
Zr       1.51268395      10.28607081       2.04690392        8       4.00000000       4.00000000       0.00132506       0.00235470       0.00284578
Zr       4.35307657       1.43494172       6.13137163        8       4.00000000       4.00000000       0.00248124       0.00551952       0.00447610
Zr       4.47343197       7.32206019       6.14013158        8       4.00000000       4.00000000      -0.00345230       0.00576482       0.00238860
Zr       1.43756166       4.39756152       2.03840469        8       4.00000000       4.00000000      -0.00107374       0.00078005       0.00275020
Zr       1.43650082       4.40086777       6.12152352        8       4.00000000       4.00000000      -0.00113439       0.00361742       0.00433418
Zr       4.47829468       7.31630066       2.03627168        8       4.00000000       4.00000000      -0.00439352       0.00382456       0.00296312
O        4.50178103       1.86841558      -0.00206372       16      -2.00000000      -2.00000000       0.01651712       0.00648939      -0.00027266
O        1.27742958       9.95352747       0.00375386       16      -2.00000000      -2.00000000       0.00634904      -0.01257875      -0.00162968
O        4.27023322       7.74130841       0.00310792       16      -2.00000000      -2.00000000      -0.00481598       0.00204832      -0.00078895
O        1.64712665       4.05296914      -0.00012418       16      -2.00000000      -2.00000000      -0.01143846      -0.01100607      -0.00142637
O        4.67216428       1.13623685       4.09247446       20      -2.00000000      -2.00000000       0.00734593      -0.02185417      -0.00197350
O        1.13603573      10.65689689       4.09241761       20      -2.00000000      -2.00000000       0.00337575       0.00653824      -0.00247024
O        4.13511292       7.03391216       4.09179391       20      -2.00000000      -2.00000000      -0.01057543      -0.01794645      -0.00190478
O        1.77792175       4.78834369       4.09333915       20      -2.00000000      -2.00000000       0.00116593       0.00496966      -0.00214726
O        3.09070382       3.05984490       2.33004686       24      -2.00000000      -2.00000000       0.01024012       0.00542187      -0.00631041
O        2.76580390       8.71407897       5.88860607       24      -2.00000000      -2.00000000       0.00138015      -0.00057159      -0.01379193
O        2.74613196       8.69265193       2.29668354       24      -2.00000000      -2.00000000      -0.01080402      -0.01090449      -0.00224996
O        3.18339114       3.13644227       5.91122144       24      -2.00000000      -2.00000000      -0.00998983      -0.00918890      -0.01415960
O        5.66063740       8.98710622       5.91060085       24      -2.00000000      -2.00000000       0.01041120      -0.00967419      -0.01821930
O        0.11043643       2.88223961       2.33526720       24      -2.00000000      -2.00000000       0.01713369      -0.01765857       0.00328031
O        0.20487568       2.79446896       5.90008435       24      -2.00000000      -2.00000000      -0.00315880       0.00261456      -0.02750279
O        5.64072757       9.01149977       2.27212558       24      -2.00000000      -2.00000000      -0.00266990      -0.00140657       0.00032261
O        2.95917416       5.89496845       1.68042200       32      -2.00000000      -2.00000000       0.00258973      -0.00988496      -0.02034806
O        2.92712542       5.92165741       6.51996502       32      -2.00000000      -2.00000000      -0.00419994      -0.00286812       0.00251606
O       -0.03347198       0.00672039       6.52692957       32      -2.00000000      -2.00000000       0.00642534      -0.00070063       0.00110469
O        0.02529338       0.05973380       1.68502976       32      -2.00000000      -2.00000000      -0.01066047      -0.01779654      -0.02682057
O        2.91894373       0.00488868       1.90156794       36      -2.00000000      -2.00000000       0.00268955      -0.00043458      -0.02500248
O        2.84446575       0.07203098       6.30616939       36      -2.00000000      -2.00000000       0.01228654      -0.00642335      -0.00066902
O        0.01246756       5.87384128       6.31507148       36      -2.00000000      -2.00000000      -0.00986460      -0.00454546      -0.00427020
O        0.07354265       5.93780202       1.89140114       36      -2.00000000      -2.00000000      -0.00906395      -0.00709796      -0.01058819
40