40
Lattice="5.871972 0.0 0.0 0.0 11.774171 0.0 0.0 0.0 8.178836" Properties=species:S:1:pos:R:3:spacegroup_kinds:I:1:field_charges:R:1:initial_charges:R:1:forces:R:3 spacegroup="P b a m" unit_cell=conventional occupancy="_JSON {\"0\": {\"Pb\": 1.0}, \"1\": {\"Pb\": 1.0}, \"2\": {\"Pb\": 1.0}, \"3\": {\"Pb\": 1.0}, \"4\": {\"Pb\": 1.0}, \"5\": {\"Pb\": 1.0}, \"6\": {\"Pb\": 1.0}, \"7\": {\"Pb\": 1.0}, \"8\": {\"Zr\": 1.0}, \"9\": {\"Zr\": 1.0}, \"10\": {\"Zr\": 1.0}, \"11\": {\"Zr\": 1.0}, \"12\": {\"Zr\": 1.0}, \"13\": {\"Zr\": 1.0}, \"14\": {\"Zr\": 1.0}, \"15\": {\"Zr\": 1.0}, \"16\": {\"O\": 1.0}, \"17\": {\"O\": 1.0}, \"18\": {\"O\": 1.0}, \"19\": {\"O\": 1.0}, \"20\": {\"O\": 1.0}, \"21\": {\"O\": 1.0}, \"22\": {\"O\": 1.0}, \"23\": {\"O\": 1.0}, \"24\": {\"O\": 1.0}, \"25\": {\"O\": 1.0}, \"26\": {\"O\": 1.0}, \"27\": {\"O\": 1.0}, \"28\": {\"O\": 1.0}, \"29\": {\"O\": 1.0}, \"30\": {\"O\": 1.0}, \"31\": {\"O\": 1.0}, \"32\": {\"O\": 1.0}, \"33\": {\"O\": 1.0}, \"34\": {\"O\": 1.0}, \"35\": {\"O\": 1.0}, \"36\": {\"O\": 1.0}, \"37\": {\"O\": 1.0}, \"38\": {\"O\": 1.0}, \"39\": {\"O\": 1.0}}" neb_image=0 energy=-39205.764739708866 polarization_c_per_m2="_JSON [-0.0012611573750599988, 0.0349032942069816, -1.3526432333244794e-15]" pbc="T T T"
Pb       1.17373646       1.45287285      -0.00000000        0       2.00000000       2.00000000       0.01811033      -0.02203254      -0.00000000
Pb       4.69823554      10.32129815      -0.00000000        0       2.00000000       2.00000000       0.02886545      -0.02506414      -0.00000000
Pb       1.76224954       7.33995835      -0.00000000        0       2.00000000       2.00000000       0.02886545      -0.02203254      -0.00000000
Pb       4.10972246       4.43421265      -0.00000000        0       2.00000000       2.00000000       0.01811033      -0.02506414      -0.00000000
Pb       1.22777814       1.51267559       4.08941800        4       2.00000000       2.00000000       0.01833476      -0.01928032       0.00000000
Pb       4.64419386      10.26149541       4.08941800        4       2.00000000       2.00000000       0.02864101      -0.02781637       0.00000000
Pb       1.70820786       7.39976109       4.08941800        4       2.00000000       2.00000000       0.02864101      -0.01928032       0.00000000
Pb       4.16376414       4.37440991       4.08941800        4       2.00000000       2.00000000       0.01833476      -0.02781637       0.00000000
Zr       4.35630128       1.46381254       2.04209901        8       4.00000000       4.00000000       0.04074979      -0.05115421       0.00128299
Zr       1.51567072      10.31035846       6.13673699        8       4.00000000       4.00000000       0.05320176      -0.04303916      -0.00128299
Zr       1.51567072      10.31035846       2.04209901        8       4.00000000       4.00000000       0.05320176      -0.04303916       0.00128299
Zr       4.35630128       1.46381254       6.13673699        8       4.00000000       4.00000000       0.04074979      -0.05115421      -0.00128299
Zr       4.45165672       7.35089804       6.13673699        8       4.00000000       4.00000000       0.05320176      -0.05115421      -0.00128299
Zr       1.42031528       4.42327296       2.04209901        8       4.00000000       4.00000000       0.04074979      -0.04303916       0.00128299
Zr       1.42031528       4.42327296       6.13673699        8       4.00000000       4.00000000       0.04074979      -0.04303916      -0.00128299
Zr       4.45165672       7.35089804       2.04209901        8       4.00000000       4.00000000       0.05320176      -0.05115421       0.00128299
O        4.55672239       1.85661981      -0.00000000       16      -2.00000000      -2.00000000      -0.01967453       0.01834648       0.00000000
O        1.31524961       9.91755119      -0.00000000       16      -2.00000000      -2.00000000      -0.02730124       0.02875020       0.00000000
O        4.25123561       7.74370531      -0.00000000       16      -2.00000000      -2.00000000      -0.02730124       0.01834648       0.00000000
O        1.62073639       4.03046569      -0.00000000       16      -2.00000000      -2.00000000      -0.01967453       0.02875020       0.00000000
O        4.70256932       1.10550087       4.08941800       20      -2.00000000      -2.00000000      -0.01760133       0.03098644      -0.00000000
O        1.16940268      10.66867013       4.08941800       20      -2.00000000      -2.00000000      -0.02937445       0.01611025      -0.00000000
O        4.10538868       6.99258637       4.08941800       20      -2.00000000      -2.00000000      -0.02937445       0.03098644      -0.00000000
O        1.76658332       4.78158463       4.08941800       20      -2.00000000      -2.00000000      -0.01760133       0.01611025      -0.00000000
O        3.12999853       3.08379167       2.30409508       24      -2.00000000      -2.00000000      -0.03345472       0.03894801      -0.00556508
O        2.74197347       8.69037933       5.87474092       24      -2.00000000      -2.00000000      -0.01352106       0.00814867       0.00556508
O        2.74197347       8.69037933       2.30409508       24      -2.00000000      -2.00000000      -0.01352106       0.00814867      -0.00556508
O        3.12999853       3.08379167       5.87474092       24      -2.00000000      -2.00000000      -0.03345472       0.03894801       0.00556508
O        5.67795947       8.97087717       5.87474092       24      -2.00000000      -2.00000000      -0.01352106       0.03894801       0.00556508
O        0.19401253       2.80329383       2.30409508       24      -2.00000000      -2.00000000      -0.03345472       0.00814867      -0.00556508
O        0.19401253       2.80329383       5.87474092       24      -2.00000000      -2.00000000      -0.03345472       0.00814867       0.00556508
O        5.67795947       8.97087717       2.30409508       24      -2.00000000      -2.00000000      -0.01352106       0.03894801      -0.00556508
O        2.93598600       5.88708550       1.65175084       32      -2.00000000      -2.00000000      -0.02348789       0.02354834       0.00096873
O        2.93598600       5.88708550       6.52708516       32      -2.00000000      -2.00000000      -0.02348789       0.02354834      -0.00096873
O        0.00000000       0.00000000       6.52708516       32      -2.00000000      -2.00000000      -0.02348789       0.02354834      -0.00096873
O       -0.00000000       0.00000000       1.65175084       32      -2.00000000      -2.00000000      -0.02348789       0.02354834       0.00096873
O        2.93598600       0.00000000       1.87160782       36      -2.00000000      -2.00000000      -0.02348789       0.02354834       0.00119428
O        2.93598600       0.00000000       6.30722818       36      -2.00000000      -2.00000000      -0.02348789       0.02354834      -0.00119428
O        0.00000000       5.88708550       6.30722818       36      -2.00000000      -2.00000000      -0.02348789       0.02354834      -0.00119428
O        0.00000000       5.88708550       1.87160782       36      -2.00000000      -2.00000000      -0.02348789       0.02354834       0.00119428
40
Lattice="5.86948593755371 0.0 0.0 -0.001951759012404327 11.765524145269328 0.0 0.00019513041086099514 9.287510724314092e-05 8.17160908049532" Properties=species:S:1:pos:R:3:spacegroup_kinds:I:1:field_charges:R:1:initial_charges:R:1:forces:R:3 spacegroup="P b a m" unit_cell=conventional occupancy="_JSON {\"0\": {\"Pb\": 1.0}, \"1\": {\"Pb\": 1.0}, \"2\": {\"Pb\": 1.0}, \"3\": {\"Pb\": 1.0}, \"4\": {\"Pb\": 1.0}, \"5\": {\"Pb\": 1.0}, \"6\": {\"Pb\": 1.0}, \"7\": {\"Pb\": 1.0}, \"8\": {\"Zr\": 1.0}, \"9\": {\"Zr\": 1.0}, \"10\": {\"Zr\": 1.0}, \"11\": {\"Zr\": 1.0}, \"12\": {\"Zr\": 1.0}, \"13\": {\"Zr\": 1.0}, \"14\": {\"Zr\": 1.0}, \"15\": {\"Zr\": 1.0}, \"16\": {\"O\": 1.0}, \"17\": {\"O\": 1.0}, \"18\": {\"O\": 1.0}, \"19\": {\"O\": 1.0}, \"20\": {\"O\": 1.0}, \"21\": {\"O\": 1.0}, \"22\": {\"O\": 1.0}, \"23\": {\"O\": 1.0}, \"24\": {\"O\": 1.0}, \"25\": {\"O\": 1.0}, \"26\": {\"O\": 1.0}, \"27\": {\"O\": 1.0}, \"28\": {\"O\": 1.0}, \"29\": {\"O\": 1.0}, \"30\": {\"O\": 1.0}, \"31\": {\"O\": 1.0}, \"32\": {\"O\": 1.0}, \"33\": {\"O\": 1.0}, \"34\": {\"O\": 1.0}, \"35\": {\"O\": 1.0}, \"36\": {\"O\": 1.0}, \"37\": {\"O\": 1.0}, \"38\": {\"O\": 1.0}, \"39\": {\"O\": 1.0}}" neb_image=1 energy=-39205.781253075336 polarization_c_per_m2="_JSON [0.019163236306832778, -0.0030612228126487523, -0.0005997368378084586]" pbc="T T T"
Pb       1.18998583       1.41822459      -0.00371039        0       2.00000000       2.00000000       0.00583667      -0.01157266       0.00055932
Pb       4.70762805      10.28096672       0.00293405        0       2.00000000       2.00000000       0.00288702      -0.01000935       0.00002171
Pb       1.77105117       7.30945725       0.00287317        0       2.00000000       2.00000000       0.00281906      -0.00801409       0.00000575
Pb       4.11815338       4.40273192      -0.00400926        0       2.00000000       2.00000000       0.00308908      -0.00944793       0.00055592
Pb       1.22463548       1.49453253       4.08414100        4       2.00000000       2.00000000      -0.00112100      -0.00554045       0.00036315
Pb       4.63774726      10.23627946       4.08647150        4       2.00000000       2.00000000      -0.00218378      -0.00549058       0.00004605
Pb       1.72799204       7.36830631       4.08649585        4       2.00000000       2.00000000       0.00594776      -0.00851632       0.00006591
Pb       4.18390734       4.34469069       4.08419132        4       2.00000000       2.00000000       0.00792852      -0.00797094       0.00038205
Zr       4.35699088       1.45281814       2.03669890        8       4.00000000       4.00000000       0.00040288      -0.00279319      -0.00091148
Zr       1.51726476      10.29184509       6.12827841        8       4.00000000       4.00000000       0.00038592      -0.00313683      -0.00090656
Zr       1.51777647      10.29255574       2.04379143        8       4.00000000       4.00000000       0.00037878      -0.00319682       0.00091798
Zr       4.35662611       1.45209411       6.13394100        8       4.00000000       4.00000000       0.00043777      -0.00277120       0.00119461
Zr       4.45981257       7.33351963       6.13415801        8       4.00000000       4.00000000       0.00311965      -0.00375434       0.00084411
Zr       1.42872229       4.40753909       2.04242209        8       4.00000000       4.00000000       0.00287336      -0.00354128       0.00089907
Zr       1.42830545       4.40832439       6.12825863        8       4.00000000       4.00000000       0.00290226      -0.00357062      -0.00061385
Zr       4.46033335       7.33268929       2.03795946        8       4.00000000       4.00000000       0.00309491      -0.00370277      -0.00083120
O        4.53628825       1.87189312      -0.00019480       16      -2.00000000      -2.00000000      -0.00563097       0.00490512       0.00006444
O        1.29909546       9.92996448       0.00020430       16      -2.00000000      -2.00000000      -0.00467035       0.00578534      -0.00001609
O        4.24989588       7.74361056       0.00021195       16      -2.00000000      -2.00000000       0.00226371       0.00145382      -0.00001307
O        1.62286196       4.03621462      -0.00017904       16      -2.00000000      -2.00000000       0.00129145       0.00243362       0.00006229
O        4.68648151       1.11437744       4.08590945       20      -2.00000000      -2.00000000      -0.00528878       0.00227203      -0.00003127
O        1.15277637      10.66788718       4.08583076       20      -2.00000000      -2.00000000      -0.00359525       0.00185123      -0.00007434
O        4.10841986       7.00225428       4.08583762       20      -2.00000000      -2.00000000       0.00296178       0.00445908      -0.00007277
O        1.76946499       4.78837357       4.08591139       20      -2.00000000      -2.00000000       0.00212325       0.00287783      -0.00002685
O        3.12890748       3.09031317       2.30081929       24      -2.00000000      -2.00000000       0.00198563       0.00414021      -0.00162457
O        2.74817005       8.69515036       5.86862478       24      -2.00000000      -2.00000000       0.00265414       0.00373850       0.00042739
O        2.74420789       8.69121865       2.30141209       24      -2.00000000      -2.00000000       0.00264766       0.00373697      -0.00055021
O        3.13463676       3.09565507       5.87405139       24      -2.00000000      -2.00000000       0.00099188       0.00324238       0.00111126
O        5.66493804       8.97856507       5.88178301       24      -2.00000000      -2.00000000      -0.00304261       0.00447597       0.00358957
O        0.17579760       2.81739182       2.31243437       24      -2.00000000      -2.00000000      -0.00409381       0.00401943       0.00325136
O        0.18148187       2.81212321       5.86201161       24      -2.00000000      -2.00000000      -0.00510668       0.00492238      -0.00375246
O        5.66100056       8.98233156       2.28805686       24      -2.00000000      -2.00000000      -0.00306804       0.00448399      -0.00374299
O        2.92986107       5.89869878       1.65344240       32      -2.00000000      -2.00000000      -0.00154450       0.00524807       0.00075207
O        2.92583891       5.90204264       6.51843333       32      -2.00000000      -2.00000000      -0.00123838       0.00499264      -0.00110112
O       -0.00758426       0.01060051       6.52069858       32      -2.00000000      -2.00000000      -0.00194486       0.00392471      -0.00048906
O       -0.00352467       0.01386582       1.65151338       32      -2.00000000      -2.00000000      -0.00229580       0.00365253       0.00014703
O        2.90846779       0.01983351       1.87030233       36      -2.00000000      -2.00000000      -0.01011379       0.00794423      -0.00134760
O        2.90228003       0.02571308       6.30152500       36      -2.00000000      -2.00000000      -0.00957822       0.00741669       0.00107948
O        0.00288494       5.88020059       6.30218120       36      -2.00000000      -2.00000000       0.00300973       0.00079638      -0.00053011
O        0.00915651       5.88606655       1.87002887       36      -2.00000000      -2.00000000       0.00248394       0.00025623       0.00029507
40
Lattice="5.871176604388678 0.0 0.0 0.007197800514283492 11.764468118186475 0.0 0.000691450342101865 0.0010989022551250174 8.17303007484042" Properties=species:S:1:pos:R:3:spacegroup_kinds:I:1:field_charges:R:1:initial_charges:R:1:forces:R:3 spacegroup="P b a m" unit_cell=conventional occupancy="_JSON {\"0\": {\"Pb\": 1.0}, \"1\": {\"Pb\": 1.0}, \"2\": {\"Pb\": 1.0}, \"3\": {\"Pb\": 1.0}, \"4\": {\"Pb\": 1.0}, \"5\": {\"Pb\": 1.0}, \"6\": {\"Pb\": 1.0}, \"7\": {\"Pb\": 1.0}, \"8\": {\"Zr\": 1.0}, \"9\": {\"Zr\": 1.0}, \"10\": {\"Zr\": 1.0}, \"11\": {\"Zr\": 1.0}, \"12\": {\"Zr\": 1.0}, \"13\": {\"Zr\": 1.0}, \"14\": {\"Zr\": 1.0}, \"15\": {\"Zr\": 1.0}, \"16\": {\"O\": 1.0}, \"17\": {\"O\": 1.0}, \"18\": {\"O\": 1.0}, \"19\": {\"O\": 1.0}, \"20\": {\"O\": 1.0}, \"21\": {\"O\": 1.0}, \"22\": {\"O\": 1.0}, \"23\": {\"O\": 1.0}, \"24\": {\"O\": 1.0}, \"25\": {\"O\": 1.0}, \"26\": {\"O\": 1.0}, \"27\": {\"O\": 1.0}, \"28\": {\"O\": 1.0}, \"29\": {\"O\": 1.0}, \"30\": {\"O\": 1.0}, \"31\": {\"O\": 1.0}, \"32\": {\"O\": 1.0}, \"33\": {\"O\": 1.0}, \"34\": {\"O\": 1.0}, \"35\": {\"O\": 1.0}, \"36\": {\"O\": 1.0}, \"37\": {\"O\": 1.0}, \"38\": {\"O\": 1.0}, \"39\": {\"O\": 1.0}}" neb_image=2 energy=-39205.78030715535 polarization_c_per_m2="_JSON [0.020369173478555554, -0.02303249566671864, -0.008140847912793401]" pbc="T T T"
Pb       1.19623648       1.40075963      -0.03072799        0       2.00000000       2.00000000       0.00123797      -0.00106180       0.00645794
Pb       4.72178259      10.26041268       0.01814806        0       2.00000000       2.00000000      -0.00354107       0.00410989       0.00359571
Pb       1.77868511       7.29245075       0.01863459        0       2.00000000       2.00000000      -0.00060468       0.00257348       0.00166076
Pb       4.12286910       4.38185807      -0.03212332        0       2.00000000       2.00000000       0.00101595       0.00376350       0.00526688
Pb       1.21797961       1.48368238       4.07038732        4       2.00000000       2.00000000       0.00161985       0.00234609       0.00575018
Pb       4.63862898      10.22430178       4.08846146        4       2.00000000       2.00000000       0.00137978       0.00196365       0.00309891
Pb       1.74974103       7.35670571       4.08940174        4       2.00000000       2.00000000      -0.00517879       0.00052510       0.00246455
Pb       4.19644974       4.33177827       4.07110703        4       2.00000000       2.00000000       0.00388074       0.00248328       0.00542889
Zr       4.35810557       1.45016855       2.03174190        8       4.00000000       4.00000000       0.00028159       0.00148325       0.00128993
Zr       1.52215267      10.28539417       6.12773481        8       4.00000000       4.00000000      -0.00053830       0.00030139       0.00139812
Zr       1.52657793      10.29047335       2.04728681        8       4.00000000       4.00000000      -0.00065778      -0.00016026      -0.00014299
Zr       4.35517834       1.44544299       6.13204019        8       4.00000000       4.00000000       0.00026592       0.00118923       0.00181377
Zr       4.46976870       7.33074410       6.13843540        8       4.00000000       4.00000000      -0.00074556       0.00051525      -0.00000123
Zr       1.43627106       4.40060975       2.04052383        8       4.00000000       4.00000000       0.00138309       0.00028680       0.00124624
Zr       1.43367787       4.40622647       6.12424532        8       4.00000000       4.00000000       0.00066378       0.00037384       0.00140330
Zr       4.47371222       7.32485814       2.03765905        8       4.00000000       4.00000000      -0.00070007       0.00031780       0.00076039
O        4.51966132       1.87344955      -0.00156151       16      -2.00000000      -2.00000000       0.00767912       0.00216354       0.00028019
O        1.30778540       9.93984622       0.00168302       16      -2.00000000      -2.00000000      -0.00537060      -0.00315575      -0.00043040
O        4.25793112       7.74404712       0.00184279       16      -2.00000000      -2.00000000       0.00571014       0.00001243      -0.00038150
O        1.63945715       4.04267170      -0.00121375       16      -2.00000000      -2.00000000      -0.00532927      -0.00316680       0.00012429
O        4.68353340       1.12070152       4.08758338       20      -2.00000000      -2.00000000      -0.00317448      -0.00349478      -0.00046210
O        1.15122951      10.66738734       4.08717560       20      -2.00000000      -2.00000000       0.00480216       0.00105663      -0.00077987
O        4.12915871       7.00944475       4.08735298       20      -2.00000000      -2.00000000      -0.00430995      -0.00258519      -0.00077677
O        1.77445553       4.78735830       4.08750136       20      -2.00000000      -2.00000000       0.00392773       0.00228405      -0.00021662
O        3.11574415       3.07749482       2.31213979       24      -2.00000000      -2.00000000       0.00557171       0.00437091      -0.00415890
O        2.77546341       8.71636552       5.85988639       24      -2.00000000      -2.00000000      -0.00023813      -0.00044723       0.00271261
O        2.75000729       8.68952699       2.30545018       24      -2.00000000      -2.00000000      -0.00176037      -0.00118228      -0.00608526
O        3.16291836       3.12097556       5.88869875       24      -2.00000000      -2.00000000      -0.00432908      -0.00390419      -0.00142369
O        5.67994703       8.97493954       5.89116227       24      -2.00000000      -2.00000000       0.00250050      -0.00289918      -0.00868070
O        0.14994707       2.84442673       2.32126197       24      -2.00000000      -2.00000000       0.00635760      -0.00511304       0.00288467
O        0.19705368       2.80104926       5.87603072       24      -2.00000000      -2.00000000      -0.00408544       0.00386497      -0.00900314
O        5.65509106       8.99931635       2.27321694       24      -2.00000000      -2.00000000       0.00039782      -0.00148897       0.00349679
O        2.94695484       5.89733297       1.66383225       32      -2.00000000      -2.00000000       0.00001099      -0.00081879      -0.00669442
O        2.91783902       5.92192824       6.51337397       32      -2.00000000      -2.00000000       0.00157894      -0.00248764       0.00295039
O       -0.02342540       0.00730955       6.52487748       32      -2.00000000      -2.00000000      -0.00033832      -0.00080230      -0.00237631
O        0.00879246       0.03260203       1.65585117       32      -2.00000000      -2.00000000      -0.00451982      -0.00435647      -0.00186836
O        2.91519547       0.01116233       1.88254424       36      -2.00000000      -2.00000000      -0.00406859       0.00427241      -0.01273040
O        2.86733515       0.05655176       6.29614812       36      -2.00000000      -2.00000000       0.00122532      -0.00109317       0.00592863
O       -0.00173273       5.86677738       6.31109235       36      -2.00000000      -2.00000000       0.00040486       0.00091047      -0.00589861
O        0.04364252       5.90947608       1.86959443       36      -2.00000000      -2.00000000      -0.00240524      -0.00295010       0.00209813
40
Lattice="5.872989720472385 0.0 0.0 0.017940508308114462 11.762518426117763 0.0 0.0005873873371591002 0.0023040703655209487 8.177075973587923" Properties=species:S:1:pos:R:3:spacegroup_kinds:I:1:field_charges:R:1:initial_charges:R:1:forces:R:3 spacegroup="P b a m" unit_cell=conventional occupancy="_JSON {\"0\": {\"Pb\": 1.0}, \"1\": {\"Pb\": 1.0}, \"2\": {\"Pb\": 1.0}, \"3\": {\"Pb\": 1.0}, \"4\": {\"Pb\": 1.0}, \"5\": {\"Pb\": 1.0}, \"6\": {\"Pb\": 1.0}, \"7\": {\"Pb\": 1.0}, \"8\": {\"Zr\": 1.0}, \"9\": {\"Zr\": 1.0}, \"10\": {\"Zr\": 1.0}, \"11\": {\"Zr\": 1.0}, \"12\": {\"Zr\": 1.0}, \"13\": {\"Zr\": 1.0}, \"14\": {\"Zr\": 1.0}, \"15\": {\"Zr\": 1.0}, \"16\": {\"O\": 1.0}, \"17\": {\"O\": 1.0}, \"18\": {\"O\": 1.0}, \"19\": {\"O\": 1.0}, \"20\": {\"O\": 1.0}, \"21\": {\"O\": 1.0}, \"22\": {\"O\": 1.0}, \"23\": {\"O\": 1.0}, \"24\": {\"O\": 1.0}, \"25\": {\"O\": 1.0}, \"26\": {\"O\": 1.0}, \"27\": {\"O\": 1.0}, \"28\": {\"O\": 1.0}, \"29\": {\"O\": 1.0}, \"30\": {\"O\": 1.0}, \"31\": {\"O\": 1.0}, \"32\": {\"O\": 1.0}, \"33\": {\"O\": 1.0}, \"34\": {\"O\": 1.0}, \"35\": {\"O\": 1.0}, \"36\": {\"O\": 1.0}, \"37\": {\"O\": 1.0}, \"38\": {\"O\": 1.0}, \"39\": {\"O\": 1.0}}" neb_image=3 energy=-39205.77200811247 polarization_c_per_m2="_JSON [0.02008073690332651, -0.039984110261988275, -0.02047876381855589]" pbc="T T T"
Pb       1.20281486       1.38990898      -0.06125661        0       2.00000000       2.00000000      -0.00431553       0.00576185       0.01469354
Pb       4.73692869      10.24210854       0.02630045        0       2.00000000       2.00000000      -0.00611409       0.01519183       0.01276069
Pb       1.78765966       7.27709284       0.02989574        0       2.00000000       2.00000000      -0.00154314       0.01151511       0.00498975
Pb       4.12934405       4.36119360      -0.06108560        0       2.00000000       2.00000000      -0.00061951       0.01657884       0.01184798
Pb       1.21197872       1.47150090       4.05294561        4       2.00000000       2.00000000       0.00437835       0.01204513       0.01560343
Pb       4.64026564      10.21223223       4.08732389        4       2.00000000       2.00000000       0.00767174       0.00942869       0.00891773
Pb       1.77116173       7.34636955       4.09010822        4       2.00000000       2.00000000      -0.01418632       0.00770969       0.00719813
Pb       4.20367811       4.32031641       4.05610839        4       2.00000000       2.00000000       0.00388622       0.01037540       0.01210933
Zr       4.35975746       1.44751742       2.02683831        8       4.00000000       4.00000000       0.00082830       0.00433919       0.00346629
Zr       1.52812997      10.27908627       6.12811832        8       4.00000000       4.00000000      -0.00014169       0.00244653       0.00426648
Zr       1.53679982      10.28851092       2.04992976        8       4.00000000       4.00000000       0.00016380       0.00160744       0.00018493
Zr       4.35395463       1.43965827       6.13048055        8       4.00000000       4.00000000       0.00049132       0.00321762       0.00347713
Zr       4.47982149       7.32790248       6.14367487        8       4.00000000       4.00000000      -0.00265418       0.00350889      -0.00002742
Zr       1.44205998       4.39507682       2.03839491        8       4.00000000       4.00000000       0.00220625       0.00195959       0.00196031
Zr       1.43818371       4.40462574       6.12222653        8       4.00000000       4.00000000       0.00057106       0.00268141       0.00311232
Zr       4.48687520       7.31827201       2.03771015        8       4.00000000       4.00000000      -0.00247726       0.00210756       0.00248985
O        4.49805119       1.87027467      -0.00287510       16      -2.00000000      -2.00000000       0.02448530       0.00445895       0.00013100
O        1.32173683       9.94988172       0.00323969       16      -2.00000000      -2.00000000      -0.00956259      -0.01183795      -0.00087701
O        4.26464089       7.74265439       0.00363796       16      -2.00000000      -2.00000000       0.00922942       0.00088109      -0.00079220
O        1.65685998       4.05203334      -0.00178632       16      -2.00000000      -2.00000000      -0.01387341      -0.01153307      -0.00036765
O        4.68247930       1.13091410       4.09104580       20      -2.00000000      -2.00000000      -0.00223950      -0.01106265      -0.00139670
O        1.15208886      10.66492960       4.09037071       20      -2.00000000      -2.00000000       0.01067945       0.00250750      -0.00170491
O        4.15248053       7.01865561       4.09078638       20      -2.00000000      -2.00000000      -0.01502668      -0.01169081      -0.00162104
O        1.77500051       4.78291583       4.09074940       20      -2.00000000      -2.00000000       0.00861675       0.00558354      -0.00074314
O        3.09889932       3.06125983       2.32622732       24      -2.00000000      -2.00000000       0.01057513       0.00704430      -0.00757557
O        2.80082313       8.73431337       5.85551089       24      -2.00000000      -2.00000000      -0.00447153      -0.00564738       0.00421035
O        2.75966964       8.68909059       2.31283321       24      -2.00000000      -2.00000000      -0.00768125      -0.00732954      -0.01248028
O        3.18918146       3.14360092       5.90544003       24      -2.00000000      -2.00000000      -0.00884524      -0.00909504      -0.00492023
O        5.69468528       8.97175403       5.90660883       24      -2.00000000      -2.00000000       0.00553836      -0.00753107      -0.02313603
O        0.12300643       2.87177525       2.32540785       24      -2.00000000      -2.00000000       0.01653699      -0.01410246       0.00642659
O        0.21400550       2.78766436       5.90083461       24      -2.00000000      -2.00000000      -0.00372558       0.00393239      -0.02111627
O        5.65517328       9.01180503       2.26151742       24      -2.00000000      -2.00000000       0.00078850      -0.00455702       0.00926823
O        2.96273507       5.89573907       1.68086914       32      -2.00000000      -2.00000000       0.00209843      -0.00638556      -0.01995601
O        2.91227056       5.93869224       6.50790601       32      -2.00000000      -2.00000000       0.00349730      -0.00828320       0.01016610
O       -0.03800574       0.00402286       6.53184362       32      -2.00000000      -2.00000000       0.00071692      -0.00378848      -0.00438839
O        0.02474634       0.05318800       1.66510464       32      -2.00000000      -2.00000000      -0.01055592      -0.01397176      -0.00824306
O        2.92815569      -0.00241707       1.90451267       36      -2.00000000      -2.00000000      -0.00348535       0.00501435      -0.02963313
O        2.83786709       0.08245304       6.29078468       36      -2.00000000      -2.00000000       0.00811872      -0.00646476       0.01063406
O       -0.00476730       5.85484278       6.32373289       36      -2.00000000      -2.00000000      -0.00262096       0.00030657      -0.01190087
O        0.07494481       5.93077999       1.87119959       36      -2.00000000      -2.00000000      -0.00693858      -0.00692270       0.00296571
40