40
Lattice="5.871972 0.0 0.0 0.0 11.774171 0.0 0.0 0.0 8.178836" Properties=species:S:1:pos:R:3:spacegroup_kinds:I:1:field_charges:R:1:initial_charges:R:1:forces:R:3 spacegroup="P b a m" unit_cell=conventional occupancy="_JSON {\"0\": {\"Pb\": 1.0}, \"1\": {\"Pb\": 1.0}, \"2\": {\"Pb\": 1.0}, \"3\": {\"Pb\": 1.0}, \"4\": {\"Pb\": 1.0}, \"5\": {\"Pb\": 1.0}, \"6\": {\"Pb\": 1.0}, \"7\": {\"Pb\": 1.0}, \"8\": {\"Zr\": 1.0}, \"9\": {\"Zr\": 1.0}, \"10\": {\"Zr\": 1.0}, \"11\": {\"Zr\": 1.0}, \"12\": {\"Zr\": 1.0}, \"13\": {\"Zr\": 1.0}, \"14\": {\"Zr\": 1.0}, \"15\": {\"Zr\": 1.0}, \"16\": {\"O\": 1.0}, \"17\": {\"O\": 1.0}, \"18\": {\"O\": 1.0}, \"19\": {\"O\": 1.0}, \"20\": {\"O\": 1.0}, \"21\": {\"O\": 1.0}, \"22\": {\"O\": 1.0}, \"23\": {\"O\": 1.0}, \"24\": {\"O\": 1.0}, \"25\": {\"O\": 1.0}, \"26\": {\"O\": 1.0}, \"27\": {\"O\": 1.0}, \"28\": {\"O\": 1.0}, \"29\": {\"O\": 1.0}, \"30\": {\"O\": 1.0}, \"31\": {\"O\": 1.0}, \"32\": {\"O\": 1.0}, \"33\": {\"O\": 1.0}, \"34\": {\"O\": 1.0}, \"35\": {\"O\": 1.0}, \"36\": {\"O\": 1.0}, \"37\": {\"O\": 1.0}, \"38\": {\"O\": 1.0}, \"39\": {\"O\": 1.0}}" neb_image=0 energy=-39205.764739708866 polarization_c_per_m2="_JSON [-0.0012611573750599988, 0.0349032942069816, -1.3526432333244794e-15]" pbc="T T T"
Pb       1.17373646       1.45287285      -0.00000000        0       2.00000000       2.00000000       0.01811033      -0.02203254      -0.00000000
Pb       4.69823554      10.32129815      -0.00000000        0       2.00000000       2.00000000       0.02886545      -0.02506414      -0.00000000
Pb       1.76224954       7.33995835      -0.00000000        0       2.00000000       2.00000000       0.02886545      -0.02203254      -0.00000000
Pb       4.10972246       4.43421265      -0.00000000        0       2.00000000       2.00000000       0.01811033      -0.02506414      -0.00000000
Pb       1.22777814       1.51267559       4.08941800        4       2.00000000       2.00000000       0.01833476      -0.01928032       0.00000000
Pb       4.64419386      10.26149541       4.08941800        4       2.00000000       2.00000000       0.02864101      -0.02781637       0.00000000
Pb       1.70820786       7.39976109       4.08941800        4       2.00000000       2.00000000       0.02864101      -0.01928032       0.00000000
Pb       4.16376414       4.37440991       4.08941800        4       2.00000000       2.00000000       0.01833476      -0.02781637       0.00000000
Zr       4.35630128       1.46381254       2.04209901        8       4.00000000       4.00000000       0.04074979      -0.05115421       0.00128299
Zr       1.51567072      10.31035846       6.13673699        8       4.00000000       4.00000000       0.05320176      -0.04303916      -0.00128299
Zr       1.51567072      10.31035846       2.04209901        8       4.00000000       4.00000000       0.05320176      -0.04303916       0.00128299
Zr       4.35630128       1.46381254       6.13673699        8       4.00000000       4.00000000       0.04074979      -0.05115421      -0.00128299
Zr       4.45165672       7.35089804       6.13673699        8       4.00000000       4.00000000       0.05320176      -0.05115421      -0.00128299
Zr       1.42031528       4.42327296       2.04209901        8       4.00000000       4.00000000       0.04074979      -0.04303916       0.00128299
Zr       1.42031528       4.42327296       6.13673699        8       4.00000000       4.00000000       0.04074979      -0.04303916      -0.00128299
Zr       4.45165672       7.35089804       2.04209901        8       4.00000000       4.00000000       0.05320176      -0.05115421       0.00128299
O        4.55672239       1.85661981      -0.00000000       16      -2.00000000      -2.00000000      -0.01967453       0.01834648       0.00000000
O        1.31524961       9.91755119      -0.00000000       16      -2.00000000      -2.00000000      -0.02730124       0.02875020       0.00000000
O        4.25123561       7.74370531      -0.00000000       16      -2.00000000      -2.00000000      -0.02730124       0.01834648       0.00000000
O        1.62073639       4.03046569      -0.00000000       16      -2.00000000      -2.00000000      -0.01967453       0.02875020       0.00000000
O        4.70256932       1.10550087       4.08941800       20      -2.00000000      -2.00000000      -0.01760133       0.03098644      -0.00000000
O        1.16940268      10.66867013       4.08941800       20      -2.00000000      -2.00000000      -0.02937445       0.01611025      -0.00000000
O        4.10538868       6.99258637       4.08941800       20      -2.00000000      -2.00000000      -0.02937445       0.03098644      -0.00000000
O        1.76658332       4.78158463       4.08941800       20      -2.00000000      -2.00000000      -0.01760133       0.01611025      -0.00000000
O        3.12999853       3.08379167       2.30409508       24      -2.00000000      -2.00000000      -0.03345472       0.03894801      -0.00556508
O        2.74197347       8.69037933       5.87474092       24      -2.00000000      -2.00000000      -0.01352106       0.00814867       0.00556508
O        2.74197347       8.69037933       2.30409508       24      -2.00000000      -2.00000000      -0.01352106       0.00814867      -0.00556508
O        3.12999853       3.08379167       5.87474092       24      -2.00000000      -2.00000000      -0.03345472       0.03894801       0.00556508
O        5.67795947       8.97087717       5.87474092       24      -2.00000000      -2.00000000      -0.01352106       0.03894801       0.00556508
O        0.19401253       2.80329383       2.30409508       24      -2.00000000      -2.00000000      -0.03345472       0.00814867      -0.00556508
O        0.19401253       2.80329383       5.87474092       24      -2.00000000      -2.00000000      -0.03345472       0.00814867       0.00556508
O        5.67795947       8.97087717       2.30409508       24      -2.00000000      -2.00000000      -0.01352106       0.03894801      -0.00556508
O        2.93598600       5.88708550       1.65175084       32      -2.00000000      -2.00000000      -0.02348789       0.02354834       0.00096873
O        2.93598600       5.88708550       6.52708516       32      -2.00000000      -2.00000000      -0.02348789       0.02354834      -0.00096873
O        0.00000000       0.00000000       6.52708516       32      -2.00000000      -2.00000000      -0.02348789       0.02354834      -0.00096873
O       -0.00000000       0.00000000       1.65175084       32      -2.00000000      -2.00000000      -0.02348789       0.02354834       0.00096873
O        2.93598600       0.00000000       1.87160782       36      -2.00000000      -2.00000000      -0.02348789       0.02354834       0.00119428
O        2.93598600       0.00000000       6.30722818       36      -2.00000000      -2.00000000      -0.02348789       0.02354834      -0.00119428
O        0.00000000       5.88708550       6.30722818       36      -2.00000000      -2.00000000      -0.02348789       0.02354834      -0.00119428
O        0.00000000       5.88708550       1.87160782       36      -2.00000000      -2.00000000      -0.02348789       0.02354834       0.00119428
40
Lattice="5.869492626156221 0.0 0.0 -0.0047143570602504355 11.765889540767118 0.0 -1.3184563120863708e-05 -3.1871482741371436e-07 8.171543280224043" Properties=species:S:1:pos:R:3:spacegroup_kinds:I:1:field_charges:R:1:initial_charges:R:1:forces:R:3 spacegroup="P b a m" unit_cell=conventional occupancy="_JSON {\"0\": {\"Pb\": 1.0}, \"1\": {\"Pb\": 1.0}, \"2\": {\"Pb\": 1.0}, \"3\": {\"Pb\": 1.0}, \"4\": {\"Pb\": 1.0}, \"5\": {\"Pb\": 1.0}, \"6\": {\"Pb\": 1.0}, \"7\": {\"Pb\": 1.0}, \"8\": {\"Zr\": 1.0}, \"9\": {\"Zr\": 1.0}, \"10\": {\"Zr\": 1.0}, \"11\": {\"Zr\": 1.0}, \"12\": {\"Zr\": 1.0}, \"13\": {\"Zr\": 1.0}, \"14\": {\"Zr\": 1.0}, \"15\": {\"Zr\": 1.0}, \"16\": {\"O\": 1.0}, \"17\": {\"O\": 1.0}, \"18\": {\"O\": 1.0}, \"19\": {\"O\": 1.0}, \"20\": {\"O\": 1.0}, \"21\": {\"O\": 1.0}, \"22\": {\"O\": 1.0}, \"23\": {\"O\": 1.0}, \"24\": {\"O\": 1.0}, \"25\": {\"O\": 1.0}, \"26\": {\"O\": 1.0}, \"27\": {\"O\": 1.0}, \"28\": {\"O\": 1.0}, \"29\": {\"O\": 1.0}, \"30\": {\"O\": 1.0}, \"31\": {\"O\": 1.0}, \"32\": {\"O\": 1.0}, \"33\": {\"O\": 1.0}, \"34\": {\"O\": 1.0}, \"35\": {\"O\": 1.0}, \"36\": {\"O\": 1.0}, \"37\": {\"O\": 1.0}, \"38\": {\"O\": 1.0}, \"39\": {\"O\": 1.0}}" neb_image=1 energy=-39205.78198883277 polarization_c_per_m2="_JSON [0.020186013175591152, -0.006988693931391371, 1.193124481130284e-05]" pbc="T T T"
Pb       1.19170335       1.41347170       0.00013237        0       2.00000000       2.00000000       0.00427990      -0.00864392      -0.00001457
Pb       4.70487051      10.27857386      -0.00012065        0       2.00000000       2.00000000       0.00284893      -0.00798012       0.00000721
Pb       1.76980343       7.30687761      -0.00011703        0       2.00000000       2.00000000       0.00251569      -0.00628042       0.00000781
Pb       4.11711259       4.39893147       0.00014538        0       2.00000000       2.00000000       0.00243796      -0.00724290      -0.00001633
Pb       1.22263859       1.49271278       4.08582595        4       2.00000000       2.00000000      -0.00092428      -0.00425237      -0.00000970
Pb       4.63392425      10.23413365       4.08573866        4       2.00000000       2.00000000      -0.00096206      -0.00453366       0.00000069
Pb       1.72844945       7.36611710       4.08573687        4       2.00000000       2.00000000       0.00538382      -0.00639428       0.00000077
Pb       4.18541095       4.34272102       4.08582204        4       2.00000000       2.00000000       0.00565737      -0.00643387      -0.00000767
Zr       4.35583982       1.45180120       2.03684537        8       4.00000000       4.00000000       0.00043264      -0.00246134      -0.00077839
Zr       1.51441221      10.29147371       6.12767363        8       4.00000000       4.00000000       0.00077269      -0.00261735      -0.00080640
Zr       1.51439595      10.29144541       2.04385045        8       4.00000000       4.00000000       0.00077480      -0.00261475       0.00080659
Zr       4.35585235       1.45183157       6.13472917        8       4.00000000       4.00000000       0.00043156      -0.00246375       0.00077319
Zr       4.45928871       7.33211475       6.13418827        8       4.00000000       4.00000000       0.00279456      -0.00305349       0.00066078
Zr       1.42811884       4.40712750       2.04321017        8       4.00000000       4.00000000       0.00228731      -0.00292939       0.00065472
Zr       1.42813466       4.40709891       6.12836190        8       4.00000000       4.00000000       0.00228584      -0.00292779      -0.00065863
Zr       4.45927197       7.33214524       2.03733317        8       4.00000000       4.00000000       0.00279688      -0.00305571      -0.00065951
O        4.53372250       1.87309769       0.00000696       16      -2.00000000      -2.00000000      -0.00458634       0.00398649      -0.00000068
O        1.29466997       9.93159112      -0.00000650       16      -2.00000000      -2.00000000      -0.00360503       0.00472434       0.00000081
O        4.25040286       7.74399919      -0.00000734       16      -2.00000000      -2.00000000       0.00093633       0.00128300       0.00000106
O        1.62324063       4.03698705       0.00000633       16      -2.00000000      -2.00000000       0.00110128       0.00210364      -0.00000026
O        4.68370872       1.11447592       4.08576839       20      -2.00000000      -2.00000000      -0.00370037       0.00218480       0.00000039
O        1.14950451      10.66885924       4.08577265       20      -2.00000000      -2.00000000      -0.00339765       0.00171919       0.00000035
O        4.10823640       7.00356996       4.08577227       20      -2.00000000      -2.00000000       0.00168322       0.00357839       0.00000035
O        1.76969852       4.78879673       4.08576758       20      -2.00000000      -2.00000000       0.00130813       0.00236961       0.00000061
O        3.13225285       3.09475866       2.29817896       24      -2.00000000      -2.00000000       0.00105480       0.00292100      -0.00084699
O        2.74584627       8.69548909       5.86943008       24      -2.00000000      -2.00000000       0.00195059       0.00255869      -0.00002497
O        2.74601368       8.69564864       2.30218341       24      -2.00000000      -2.00000000       0.00194005       0.00254708       0.00002335
O        3.13205184       3.09457205       5.87324910       24      -2.00000000      -2.00000000       0.00107780       0.00294142       0.00086228
O        5.66037151       8.98156371       5.88280773       24      -2.00000000      -2.00000000      -0.00257824       0.00379503       0.00298293
O        0.17664181       2.81607106       2.31240434       24      -2.00000000      -2.00000000      -0.00366973       0.00335613       0.00234854
O        0.17644348       2.81625779       5.85904281       24      -2.00000000      -2.00000000      -0.00364709       0.00333397      -0.00233750
O        5.66053822       8.98140798       2.28881717       24      -2.00000000      -2.00000000      -0.00258839       0.00380537      -0.00298636
O        2.92616502       5.90236215       1.65375742       32      -2.00000000      -2.00000000      -0.00136093       0.00434224       0.00079136
O        2.92631608       5.90223623       6.51778614       32      -2.00000000      -2.00000000      -0.00137449       0.00435322      -0.00078957
O       -0.00710400       0.01286086       6.52019730       32      -2.00000000      -2.00000000      -0.00162237       0.00287140      -0.00023968
O       -0.00725476       0.01273534       1.65133074       32      -2.00000000      -2.00000000      -0.00160616       0.00288487       0.00024556
O        2.90082979       0.02607837       1.86865435       36      -2.00000000      -2.00000000      -0.00759393       0.00583203      -0.00028695
O        2.90106184       0.02585803       6.30289101       36      -2.00000000      -2.00000000      -0.00761608       0.00585227       0.00028920
O        0.00672454       5.88418804       6.30123539       36      -2.00000000      -2.00000000       0.00202994       0.00026037      -0.00008067
O        0.00648797       5.88396428       1.87029043       36      -2.00000000      -2.00000000       0.00205109       0.00028056       0.00008631
40
Lattice="5.870179189398317 0.0 0.0 -0.007936124537441224 11.765292424781823 0.0 0.002908243511628925 8.128549110285786e-05 8.17238602765348" Properties=species:S:1:pos:R:3:spacegroup_kinds:I:1:field_charges:R:1:initial_charges:R:1:forces:R:3 spacegroup="P b a m" unit_cell=conventional occupancy="_JSON {\"0\": {\"Pb\": 1.0}, \"1\": {\"Pb\": 1.0}, \"2\": {\"Pb\": 1.0}, \"3\": {\"Pb\": 1.0}, \"4\": {\"Pb\": 1.0}, \"5\": {\"Pb\": 1.0}, \"6\": {\"Pb\": 1.0}, \"7\": {\"Pb\": 1.0}, \"8\": {\"Zr\": 1.0}, \"9\": {\"Zr\": 1.0}, \"10\": {\"Zr\": 1.0}, \"11\": {\"Zr\": 1.0}, \"12\": {\"Zr\": 1.0}, \"13\": {\"Zr\": 1.0}, \"14\": {\"Zr\": 1.0}, \"15\": {\"Zr\": 1.0}, \"16\": {\"O\": 1.0}, \"17\": {\"O\": 1.0}, \"18\": {\"O\": 1.0}, \"19\": {\"O\": 1.0}, \"20\": {\"O\": 1.0}, \"21\": {\"O\": 1.0}, \"22\": {\"O\": 1.0}, \"23\": {\"O\": 1.0}, \"24\": {\"O\": 1.0}, \"25\": {\"O\": 1.0}, \"26\": {\"O\": 1.0}, \"27\": {\"O\": 1.0}, \"28\": {\"O\": 1.0}, \"29\": {\"O\": 1.0}, \"30\": {\"O\": 1.0}, \"31\": {\"O\": 1.0}, \"32\": {\"O\": 1.0}, \"33\": {\"O\": 1.0}, \"34\": {\"O\": 1.0}, \"35\": {\"O\": 1.0}, \"36\": {\"O\": 1.0}, \"37\": {\"O\": 1.0}, \"38\": {\"O\": 1.0}, \"39\": {\"O\": 1.0}}" neb_image=2 energy=-39205.78181295919 polarization_c_per_m2="_JSON [0.02309731095782007, -0.022991551091414025, -0.004367166813765313]" pbc="T T T"
Pb       1.19790001       1.39583339      -0.02989968        0       2.00000000       2.00000000       0.00025348       0.00059260       0.00471539
Pb       4.70333502      10.26215587       0.02443474        0       2.00000000       2.00000000      -0.00033376       0.00255031      -0.00061047
Pb       1.77126967       7.29694650       0.02405306        0       2.00000000       2.00000000      -0.00075444       0.00118501      -0.00115185
Pb       4.11807148       4.38572933      -0.03295041        0       2.00000000       2.00000000      -0.00017906       0.00195231       0.00433536
Pb       1.21573464       1.48531093       4.07223606        4       2.00000000       2.00000000       0.00150705       0.00165614       0.00383553
Pb       4.62686275      10.22626926       4.09225784        4       2.00000000       2.00000000       0.00090331       0.00100085       0.00056651
Pb       1.73722577       7.35471038       4.09258516        4       2.00000000       2.00000000      -0.00128451       0.00117478       0.00060198
Pb       4.19400594       4.33027032       4.07384442        4       2.00000000       2.00000000      -0.00017391       0.00204056       0.00251807
Zr       4.35615338       1.45108566       2.03160427        8       4.00000000       4.00000000       0.00035635       0.00042653       0.00101971
Zr       1.50929080      10.28378435       6.12843231        8       4.00000000       4.00000000       0.00063713       0.00074973       0.00032718
Zr       1.51281855      10.28993859       2.04739242        8       4.00000000       4.00000000       0.00003747       0.00006801      -0.00001462
Zr       4.35375622       1.44466018       6.13293449        8       4.00000000       4.00000000       0.00067623       0.00100567       0.00070894
Zr       4.46193363       7.33066297       6.13797887        8       4.00000000       4.00000000      -0.00033623       0.00040088      -0.00002555
Zr       1.43322130       4.40056024       2.04111711        8       4.00000000       4.00000000      -0.00034377       0.00039973       0.00052007
Zr       1.43007764       4.40631654       6.12443137        8       4.00000000       4.00000000      -0.00015381       0.00024837       0.00077889
Zr       4.46562430       7.32429438       2.03878232        8       4.00000000       4.00000000      -0.00083237       0.00072740       0.00007894
O        4.52046987       1.87531929      -0.00152870       16      -2.00000000      -2.00000000       0.00247697       0.00073029       0.00015405
O        1.28620006       9.93901934       0.00150627       16      -2.00000000      -2.00000000       0.00060457      -0.00148634      -0.00029506
O        4.25686757       7.74399367       0.00175902       16      -2.00000000      -2.00000000      -0.00090188      -0.00001873      -0.00025183
O        1.62964607       4.04068448      -0.00122914       16      -2.00000000      -2.00000000      -0.00138631      -0.00109598       0.00001375
O        4.67722282       1.11559301       4.08694933       20      -2.00000000      -2.00000000       0.00084928      -0.00168026      -0.00020129
O        1.14304828      10.66669233       4.08617992       20      -2.00000000      -2.00000000       0.00082887       0.00081950      -0.00023043
O        4.11601898       7.01284707       4.08624072       20      -2.00000000      -2.00000000      -0.00139408      -0.00187813      -0.00018402
O        1.77290400       4.79240378       4.08719065       20      -2.00000000      -2.00000000       0.00011152       0.00004813      -0.00023364
O        3.10942087       3.07465777       2.31375976       24      -2.00000000      -2.00000000       0.00357325       0.00286290      -0.00227168
O        2.76566645       8.71560719       5.86676263       24      -2.00000000      -2.00000000      -0.00092325      -0.00117583      -0.00084689
O        2.73132240       8.68241006       2.29258146       24      -2.00000000      -2.00000000       0.00049336       0.00062281       0.00037760
O        3.15542388       3.11669746       5.88581118       24      -2.00000000      -2.00000000      -0.00275360      -0.00253154      -0.00198151
O        5.67122538       8.97312570       5.88234400       24      -2.00000000      -2.00000000       0.00030988      -0.00030981      -0.00158890
O        0.14432062       2.84790709       2.32815655       24      -2.00000000      -2.00000000       0.00459041      -0.00456316      -0.00082582
O        0.18971059       2.80505867       5.86619947       24      -2.00000000      -2.00000000      -0.00195657       0.00176519      -0.00304278
O        5.63716181       9.00509908       2.27419620       24      -2.00000000      -2.00000000       0.00161139      -0.00206345       0.00118220
O        2.94782259       5.89104957       1.65752262       32      -2.00000000      -2.00000000      -0.00241712       0.00103086      -0.00155653
O        2.91555219       5.91809848       6.51567484       32      -2.00000000      -2.00000000       0.00025810      -0.00107355       0.00021105
O       -0.02306863       0.00614968       6.52109625       32      -2.00000000      -2.00000000       0.00188783       0.00058260      -0.00002482
O        0.01039581       0.03427636       1.65664225       32      -2.00000000      -2.00000000      -0.00279410      -0.00343423      -0.00249376
O        2.91604411       0.00909593       1.87019964       36      -2.00000000      -2.00000000      -0.00215714       0.00248083      -0.00285297
O        2.86558752       0.05694685       6.30291326       36      -2.00000000      -2.00000000       0.00359916      -0.00256381       0.00058323
O       -0.00504869       5.86845519       6.30371475       36      -2.00000000      -2.00000000      -0.00001075       0.00064028      -0.00079690
O        0.04571142       5.91684689       1.87429891       36      -2.00000000      -2.00000000      -0.00447896      -0.00388749      -0.00104713
40
Lattice="5.8732646529411605 0.0 0.0 -0.005032331330289919 11.762646315550567 0.0 0.00591493007553675 0.0002683613021704091 8.177186961456385" Properties=species:S:1:pos:R:3:spacegroup_kinds:I:1:field_charges:R:1:initial_charges:R:1:forces:R:3 spacegroup="P b a m" unit_cell=conventional occupancy="_JSON {\"0\": {\"Pb\": 1.0}, \"1\": {\"Pb\": 1.0}, \"2\": {\"Pb\": 1.0}, \"3\": {\"Pb\": 1.0}, \"4\": {\"Pb\": 1.0}, \"5\": {\"Pb\": 1.0}, \"6\": {\"Pb\": 1.0}, \"7\": {\"Pb\": 1.0}, \"8\": {\"Zr\": 1.0}, \"9\": {\"Zr\": 1.0}, \"10\": {\"Zr\": 1.0}, \"11\": {\"Zr\": 1.0}, \"12\": {\"Zr\": 1.0}, \"13\": {\"Zr\": 1.0}, \"14\": {\"Zr\": 1.0}, \"15\": {\"Zr\": 1.0}, \"16\": {\"O\": 1.0}, \"17\": {\"O\": 1.0}, \"18\": {\"O\": 1.0}, \"19\": {\"O\": 1.0}, \"20\": {\"O\": 1.0}, \"21\": {\"O\": 1.0}, \"22\": {\"O\": 1.0}, \"23\": {\"O\": 1.0}, \"24\": {\"O\": 1.0}, \"25\": {\"O\": 1.0}, \"26\": {\"O\": 1.0}, \"27\": {\"O\": 1.0}, \"28\": {\"O\": 1.0}, \"29\": {\"O\": 1.0}, \"30\": {\"O\": 1.0}, \"31\": {\"O\": 1.0}, \"32\": {\"O\": 1.0}, \"33\": {\"O\": 1.0}, \"34\": {\"O\": 1.0}, \"35\": {\"O\": 1.0}, \"36\": {\"O\": 1.0}, \"37\": {\"O\": 1.0}, \"38\": {\"O\": 1.0}, \"39\": {\"O\": 1.0}}" neb_image=3 energy=-39205.774028642976 polarization_c_per_m2="_JSON [0.021989150785484905, -0.0401844145214678, -0.0231330445184124]" pbc="T T T"
Pb       1.19703757       1.38876386      -0.06551162        0       2.00000000       2.00000000       0.00002630       0.00114801       0.01913414
Pb       4.71122781      10.23770599       0.02614268        0       2.00000000       2.00000000      -0.00165274       0.01514270       0.01177341
Pb       1.78082724       7.28587278       0.03000845        0       2.00000000       2.00000000      -0.00423331       0.00873109       0.00438799
Pb       4.12246784       4.36930012      -0.06550981        0       2.00000000       2.00000000      -0.00127763       0.01440186       0.01423021
Pb       1.20489411       1.47198027       4.04425592        4       2.00000000       2.00000000       0.00679471       0.01423822       0.02544684
Pb       4.62538727      10.21615686       4.08871418        4       2.00000000       2.00000000       0.00443893       0.00854900       0.00759045
Pb       1.75192047       7.34280263       4.08844378        4       2.00000000       2.00000000      -0.00890864       0.00743141       0.00843418
Pb       4.20026452       4.31148612       4.05639310        4       2.00000000       2.00000000      -0.00101673       0.01356351       0.00992566
Zr       4.35607413       1.44673146       2.02457638        8       4.00000000       4.00000000       0.00247615       0.00349689       0.00489089
Zr       1.50972350      10.27542034       6.12889861        8       4.00000000       4.00000000       0.00165309       0.00274308       0.00309689
Zr       1.51619911      10.28648117       2.04847553        8       4.00000000       4.00000000       0.00099184       0.00207658       0.00172405
Zr       4.35315394       1.43632414       6.13124308        8       4.00000000       4.00000000       0.00214521       0.00425388       0.00336557
Zr       4.47174346       7.32544010       6.14129670        8       4.00000000       4.00000000      -0.00279044       0.00437356       0.00106459
Zr       1.43848095       4.39667041       2.03832416        8       4.00000000       4.00000000      -0.00064930       0.00089791       0.00183257
Zr       1.43591407       4.40297295       6.12185766        8       4.00000000       4.00000000      -0.00088934       0.00309017       0.00340851
Zr       4.47746931       7.31701946       2.03892103        8       4.00000000       4.00000000      -0.00356160       0.00306249       0.00182809
O        4.50287924       1.86910202      -0.00256939       16      -2.00000000      -2.00000000       0.01563659       0.00515457      -0.00003500
O        1.28358932       9.94906510       0.00377595       16      -2.00000000      -2.00000000       0.00397383      -0.00995662      -0.00128570
O        4.26907846       7.74252789       0.00362410       16      -2.00000000      -2.00000000      -0.00345318       0.00015986      -0.00069989
O        1.64349036       4.04851319      -0.00113222       16      -2.00000000      -2.00000000      -0.00925345      -0.00811525      -0.00083973
O        4.67418663       1.12783931       4.09097023       20      -2.00000000      -2.00000000       0.00528722      -0.01603677      -0.00136474
O        1.14052449      10.65667936       4.09052985       20      -2.00000000      -2.00000000       0.00369835       0.00440483      -0.00176160
O        4.13283259       7.02816675       4.09018411       20      -2.00000000      -2.00000000      -0.00896748      -0.01177881      -0.00132227
O        1.77600908       4.79233608       4.09149779       20      -2.00000000      -2.00000000       0.00140425       0.00287207      -0.00136335
O        3.08420084       3.05144855       2.33398001       24      -2.00000000      -2.00000000       0.00982215       0.00588678      -0.00596986
O        2.77492900       8.71941457       5.87989331       24      -2.00000000      -2.00000000      -0.00067584      -0.00234488      -0.00688656
O        2.73294377       8.67659442       2.29047648       24      -2.00000000      -2.00000000      -0.00673454      -0.00629404      -0.00290165
O        3.17947768       3.13370194       5.90318748       24      -2.00000000      -2.00000000      -0.00814873      -0.00786332      -0.00993285
O        5.67174359       8.97792822       5.90125321       24      -2.00000000      -2.00000000       0.00715723      -0.00696478      -0.01363306
O        0.10866970       2.88443526       2.33712242       24      -2.00000000      -2.00000000       0.01563227      -0.01599239       0.00290522
O        0.20511782       2.79386508       5.89202812       24      -2.00000000      -2.00000000      -0.00305076       0.00283597      -0.02090702
O        5.63080734       9.01945987       2.26603363       24      -2.00000000      -2.00000000       0.00003342      -0.00316029       0.00179106
O        2.97119929       5.88163719       1.67108976       32      -2.00000000      -2.00000000      -0.00161647      -0.00451158      -0.01245775
O        2.92318128       5.92245466       6.51854851       32      -2.00000000      -2.00000000      -0.00234844      -0.00337687       0.00213821
O       -0.03288185       0.00457147       6.52510224       32      -2.00000000      -2.00000000       0.00556917      -0.00043395       0.00056026
O        0.03289855       0.06211415       1.67790939       32      -2.00000000      -2.00000000      -0.01030379      -0.01574110      -0.01955838
O        2.93320301      -0.00908419       1.89433676       36      -2.00000000      -2.00000000      -0.00038000       0.00244738      -0.02000992
O        2.84356402       0.07420531       6.30254544       36      -2.00000000      -2.00000000       0.01114649      -0.00642235       0.00078518
O        0.00449459       5.86714383       6.31407381       36      -2.00000000      -2.00000000      -0.00743423      -0.00324899      -0.00447701
O        0.08389655       5.94667832       1.88400027       36      -2.00000000      -2.00000000      -0.01054057      -0.00871983      -0.00490764
40