40
Lattice="5.871972 0.0 0.0 0.0 11.774171 0.0 0.0 0.0 8.178836" Properties=species:S:1:pos:R:3:spacegroup_kinds:I:1:field_charges:R:1:initial_charges:R:1:forces:R:3 spacegroup="P b a m" unit_cell=conventional occupancy="_JSON {\"0\": {\"Pb\": 1.0}, \"1\": {\"Pb\": 1.0}, \"2\": {\"Pb\": 1.0}, \"3\": {\"Pb\": 1.0}, \"4\": {\"Pb\": 1.0}, \"5\": {\"Pb\": 1.0}, \"6\": {\"Pb\": 1.0}, \"7\": {\"Pb\": 1.0}, \"8\": {\"Zr\": 1.0}, \"9\": {\"Zr\": 1.0}, \"10\": {\"Zr\": 1.0}, \"11\": {\"Zr\": 1.0}, \"12\": {\"Zr\": 1.0}, \"13\": {\"Zr\": 1.0}, \"14\": {\"Zr\": 1.0}, \"15\": {\"Zr\": 1.0}, \"16\": {\"O\": 1.0}, \"17\": {\"O\": 1.0}, \"18\": {\"O\": 1.0}, \"19\": {\"O\": 1.0}, \"20\": {\"O\": 1.0}, \"21\": {\"O\": 1.0}, \"22\": {\"O\": 1.0}, \"23\": {\"O\": 1.0}, \"24\": {\"O\": 1.0}, \"25\": {\"O\": 1.0}, \"26\": {\"O\": 1.0}, \"27\": {\"O\": 1.0}, \"28\": {\"O\": 1.0}, \"29\": {\"O\": 1.0}, \"30\": {\"O\": 1.0}, \"31\": {\"O\": 1.0}, \"32\": {\"O\": 1.0}, \"33\": {\"O\": 1.0}, \"34\": {\"O\": 1.0}, \"35\": {\"O\": 1.0}, \"36\": {\"O\": 1.0}, \"37\": {\"O\": 1.0}, \"38\": {\"O\": 1.0}, \"39\": {\"O\": 1.0}}" neb_image=0 energy=-39205.764739708866 polarization_c_per_m2="_JSON [-0.0012611573750599988, 0.0349032942069816, -1.3526432333244794e-15]" pbc="T T T"
Pb       1.17373646       1.45287285      -0.00000000        0       2.00000000       2.00000000       0.01811033      -0.02203254      -0.00000000
Pb       4.69823554      10.32129815      -0.00000000        0       2.00000000       2.00000000       0.02886545      -0.02506414      -0.00000000
Pb       1.76224954       7.33995835      -0.00000000        0       2.00000000       2.00000000       0.02886545      -0.02203254      -0.00000000
Pb       4.10972246       4.43421265      -0.00000000        0       2.00000000       2.00000000       0.01811033      -0.02506414      -0.00000000
Pb       1.22777814       1.51267559       4.08941800        4       2.00000000       2.00000000       0.01833476      -0.01928032       0.00000000
Pb       4.64419386      10.26149541       4.08941800        4       2.00000000       2.00000000       0.02864101      -0.02781637       0.00000000
Pb       1.70820786       7.39976109       4.08941800        4       2.00000000       2.00000000       0.02864101      -0.01928032       0.00000000
Pb       4.16376414       4.37440991       4.08941800        4       2.00000000       2.00000000       0.01833476      -0.02781637       0.00000000
Zr       4.35630128       1.46381254       2.04209901        8       4.00000000       4.00000000       0.04074979      -0.05115421       0.00128299
Zr       1.51567072      10.31035846       6.13673699        8       4.00000000       4.00000000       0.05320176      -0.04303916      -0.00128299
Zr       1.51567072      10.31035846       2.04209901        8       4.00000000       4.00000000       0.05320176      -0.04303916       0.00128299
Zr       4.35630128       1.46381254       6.13673699        8       4.00000000       4.00000000       0.04074979      -0.05115421      -0.00128299
Zr       4.45165672       7.35089804       6.13673699        8       4.00000000       4.00000000       0.05320176      -0.05115421      -0.00128299
Zr       1.42031528       4.42327296       2.04209901        8       4.00000000       4.00000000       0.04074979      -0.04303916       0.00128299
Zr       1.42031528       4.42327296       6.13673699        8       4.00000000       4.00000000       0.04074979      -0.04303916      -0.00128299
Zr       4.45165672       7.35089804       2.04209901        8       4.00000000       4.00000000       0.05320176      -0.05115421       0.00128299
O        4.55672239       1.85661981      -0.00000000       16      -2.00000000      -2.00000000      -0.01967453       0.01834648       0.00000000
O        1.31524961       9.91755119      -0.00000000       16      -2.00000000      -2.00000000      -0.02730124       0.02875020       0.00000000
O        4.25123561       7.74370531      -0.00000000       16      -2.00000000      -2.00000000      -0.02730124       0.01834648       0.00000000
O        1.62073639       4.03046569      -0.00000000       16      -2.00000000      -2.00000000      -0.01967453       0.02875020       0.00000000
O        4.70256932       1.10550087       4.08941800       20      -2.00000000      -2.00000000      -0.01760133       0.03098644      -0.00000000
O        1.16940268      10.66867013       4.08941800       20      -2.00000000      -2.00000000      -0.02937445       0.01611025      -0.00000000
O        4.10538868       6.99258637       4.08941800       20      -2.00000000      -2.00000000      -0.02937445       0.03098644      -0.00000000
O        1.76658332       4.78158463       4.08941800       20      -2.00000000      -2.00000000      -0.01760133       0.01611025      -0.00000000
O        3.12999853       3.08379167       2.30409508       24      -2.00000000      -2.00000000      -0.03345472       0.03894801      -0.00556508
O        2.74197347       8.69037933       5.87474092       24      -2.00000000      -2.00000000      -0.01352106       0.00814867       0.00556508
O        2.74197347       8.69037933       2.30409508       24      -2.00000000      -2.00000000      -0.01352106       0.00814867      -0.00556508
O        3.12999853       3.08379167       5.87474092       24      -2.00000000      -2.00000000      -0.03345472       0.03894801       0.00556508
O        5.67795947       8.97087717       5.87474092       24      -2.00000000      -2.00000000      -0.01352106       0.03894801       0.00556508
O        0.19401253       2.80329383       2.30409508       24      -2.00000000      -2.00000000      -0.03345472       0.00814867      -0.00556508
O        0.19401253       2.80329383       5.87474092       24      -2.00000000      -2.00000000      -0.03345472       0.00814867       0.00556508
O        5.67795947       8.97087717       2.30409508       24      -2.00000000      -2.00000000      -0.01352106       0.03894801      -0.00556508
O        2.93598600       5.88708550       1.65175084       32      -2.00000000      -2.00000000      -0.02348789       0.02354834       0.00096873
O        2.93598600       5.88708550       6.52708516       32      -2.00000000      -2.00000000      -0.02348789       0.02354834      -0.00096873
O        0.00000000       0.00000000       6.52708516       32      -2.00000000      -2.00000000      -0.02348789       0.02354834      -0.00096873
O       -0.00000000       0.00000000       1.65175084       32      -2.00000000      -2.00000000      -0.02348789       0.02354834       0.00096873
O        2.93598600       0.00000000       1.87160782       36      -2.00000000      -2.00000000      -0.02348789       0.02354834       0.00119428
O        2.93598600       0.00000000       6.30722818       36      -2.00000000      -2.00000000      -0.02348789       0.02354834      -0.00119428
O        0.00000000       5.88708550       6.30722818       36      -2.00000000      -2.00000000      -0.02348789       0.02354834      -0.00119428
O        0.00000000       5.88708550       1.87160782       36      -2.00000000      -2.00000000      -0.02348789       0.02354834       0.00119428
40
Lattice="5.869492665506983 0.0 0.0 -0.004725141456765859 11.765889696646992 0.0 -1.5370066250006126e-05 -3.5643577509834366e-07 8.171540866912032" Properties=species:S:1:pos:R:3:spacegroup_kinds:I:1:field_charges:R:1:initial_charges:R:1:forces:R:3 spacegroup="P b a m" unit_cell=conventional occupancy="_JSON {\"0\": {\"Pb\": 1.0}, \"1\": {\"Pb\": 1.0}, \"2\": {\"Pb\": 1.0}, \"3\": {\"Pb\": 1.0}, \"4\": {\"Pb\": 1.0}, \"5\": {\"Pb\": 1.0}, \"6\": {\"Pb\": 1.0}, \"7\": {\"Pb\": 1.0}, \"8\": {\"Zr\": 1.0}, \"9\": {\"Zr\": 1.0}, \"10\": {\"Zr\": 1.0}, \"11\": {\"Zr\": 1.0}, \"12\": {\"Zr\": 1.0}, \"13\": {\"Zr\": 1.0}, \"14\": {\"Zr\": 1.0}, \"15\": {\"Zr\": 1.0}, \"16\": {\"O\": 1.0}, \"17\": {\"O\": 1.0}, \"18\": {\"O\": 1.0}, \"19\": {\"O\": 1.0}, \"20\": {\"O\": 1.0}, \"21\": {\"O\": 1.0}, \"22\": {\"O\": 1.0}, \"23\": {\"O\": 1.0}, \"24\": {\"O\": 1.0}, \"25\": {\"O\": 1.0}, \"26\": {\"O\": 1.0}, \"27\": {\"O\": 1.0}, \"28\": {\"O\": 1.0}, \"29\": {\"O\": 1.0}, \"30\": {\"O\": 1.0}, \"31\": {\"O\": 1.0}, \"32\": {\"O\": 1.0}, \"33\": {\"O\": 1.0}, \"34\": {\"O\": 1.0}, \"35\": {\"O\": 1.0}, \"36\": {\"O\": 1.0}, \"37\": {\"O\": 1.0}, \"38\": {\"O\": 1.0}, \"39\": {\"O\": 1.0}}" neb_image=1 energy=-39205.78199560919 polarization_c_per_m2="_JSON [0.020202296503105063, -0.007039007832048425, 1.4193517944307284e-05]" pbc="T T T"
Pb       1.19172592       1.41341961       0.00015409        0       2.00000000       2.00000000       0.00426202      -0.00861333      -0.00001721
Pb       4.70486848      10.27853270      -0.00014005        0       2.00000000       2.00000000       0.00282854      -0.00794667       0.00000824
Pb       1.76980254       7.30684049      -0.00013582        0       2.00000000       2.00000000       0.00249906      -0.00625466       0.00000898
Pb       4.11711511       4.39888533       0.00016917        0       2.00000000       2.00000000       0.00242145      -0.00721630      -0.00001922
Pb       1.22262383       1.49268870       4.08583382        4       2.00000000       2.00000000      -0.00092962      -0.00423447      -0.00001155
Pb       4.63390077      10.23410594       4.08573230        4       2.00000000       2.00000000      -0.00096668      -0.00451566       0.00000067
Pb       1.72847341       7.36608539       4.08573027        4       2.00000000       2.00000000       0.00536175      -0.00636560       0.00000070
Pb       4.18544000       4.34269077       4.08582921        4       2.00000000       2.00000000       0.00563427      -0.00640471      -0.00000908
Zr       4.35583359       1.45178917       2.03684343        8       4.00000000       4.00000000       0.00042443      -0.00244694      -0.00077563
Zr       1.51440010      10.29146508       6.12766565        8       4.00000000       4.00000000       0.00076139      -0.00260337      -0.00080338
Zr       1.51438119      10.29143214       2.04385301        8       4.00000000       4.00000000       0.00076388      -0.00260029       0.00080353
Zr       4.35584812       1.45182450       6.13473387        8       4.00000000       4.00000000       0.00042317      -0.00244978       0.00076948
Zr       4.45929349       7.33209805       6.13418891        8       4.00000000       4.00000000       0.00277894      -0.00303726       0.00065839
Zr       1.42812209       4.40711717       2.04321587        8       4.00000000       4.00000000       0.00227442      -0.00291322       0.00065179
Zr       1.42814042       4.40708398       6.12835854        8       4.00000000       4.00000000       0.00227271      -0.00291140      -0.00065643
Zr       4.45927405       7.33213346       2.03732669        8       4.00000000       4.00000000       0.00278165      -0.00303984      -0.00065700
O        4.53369381       1.87311577       0.00000809       16      -2.00000000      -2.00000000      -0.00457120       0.00396452      -0.00000079
O        1.29464506       9.93161434      -0.00000756       16      -2.00000000      -2.00000000      -0.00358722       0.00470212       0.00000096
O        4.25040874       7.74400216      -0.00000853       16      -2.00000000      -2.00000000       0.00094192       0.00127381       0.00000123
O        1.62325152       4.03699683       0.00000735       16      -2.00000000      -2.00000000       0.00110588       0.00209325      -0.00000029
O        4.68368407       1.11448421       4.08576663       20      -2.00000000      -2.00000000      -0.00368747       0.00217020       0.00000047
O        1.14947766      10.66886751       4.08577157       20      -2.00000000      -2.00000000      -0.00338083       0.00170751       0.00000043
O        4.10824804       7.00358341       4.08577114       20      -2.00000000      -2.00000000       0.00168588       0.00356188       0.00000041
O        1.76970591       4.78880143       4.08576569       20      -2.00000000      -2.00000000       0.00130694       0.00235496       0.00000073
O        3.13228160       3.09479520       2.29815855       24      -2.00000000      -2.00000000       0.00105344       0.00290585      -0.00084286
O        2.74584507       8.69550143       5.86942675       24      -2.00000000      -2.00000000       0.00194944       0.00255412      -0.00002664
O        2.74603928       8.69568652       2.30219547       24      -2.00000000      -2.00000000       0.00193737       0.00254079       0.00002489
O        3.13204763       3.09457811       5.87324814       24      -2.00000000      -2.00000000       0.00108048       0.00292981       0.00086088
O        5.66034204       8.98158846       5.88282569       24      -2.00000000      -2.00000000      -0.00256384       0.00377417       0.00296999
O        0.17664060       2.81607035       2.31240865       24      -2.00000000      -2.00000000      -0.00365565       0.00334563       0.00234153
O        0.17640970       2.81628770       5.85902018       24      -2.00000000      -2.00000000      -0.00362899       0.00331957      -0.00232840
O        5.66053546       8.98140772       2.28880979       24      -2.00000000      -2.00000000      -0.00257546       0.00378609      -0.00297378
O        2.92613533       5.90240076       1.65376471       32      -2.00000000      -2.00000000      -0.00134988       0.00432189       0.00079144
O        2.92631073       5.90225454       6.51777628       32      -2.00000000      -2.00000000      -0.00136559       0.00433459      -0.00078916
O       -0.00710750       0.01288082       6.52019320       32      -2.00000000      -2.00000000      -0.00161772       0.00285627      -0.00023901
O       -0.00728277       0.01273485       1.65132974       32      -2.00000000      -2.00000000      -0.00159869       0.00287209       0.00024603
O        2.90076067       0.02613501       1.86864984       36      -2.00000000      -2.00000000      -0.00756341       0.00580697      -0.00028683
O        2.90103037       0.02587895       6.30289318       36      -2.00000000      -2.00000000      -0.00758931       0.00583060       0.00028975
O        0.00674909       5.88420515       6.30123109       36      -2.00000000      -2.00000000       0.00202896       0.00026164      -0.00008030
O        0.00647427       5.88394513       1.87028930       36      -2.00000000      -2.00000000       0.00205357       0.00028516       0.00008701
40
Lattice="5.870227895566652 0.0 0.0 -0.007950157460388518 11.7652950569547 0.0 0.002917735710066097 7.673181753399057e-05 8.172406750330042" Properties=species:S:1:pos:R:3:spacegroup_kinds:I:1:field_charges:R:1:initial_charges:R:1:forces:R:3 spacegroup="P b a m" unit_cell=conventional occupancy="_JSON {\"0\": {\"Pb\": 1.0}, \"1\": {\"Pb\": 1.0}, \"2\": {\"Pb\": 1.0}, \"3\": {\"Pb\": 1.0}, \"4\": {\"Pb\": 1.0}, \"5\": {\"Pb\": 1.0}, \"6\": {\"Pb\": 1.0}, \"7\": {\"Pb\": 1.0}, \"8\": {\"Zr\": 1.0}, \"9\": {\"Zr\": 1.0}, \"10\": {\"Zr\": 1.0}, \"11\": {\"Zr\": 1.0}, \"12\": {\"Zr\": 1.0}, \"13\": {\"Zr\": 1.0}, \"14\": {\"Zr\": 1.0}, \"15\": {\"Zr\": 1.0}, \"16\": {\"O\": 1.0}, \"17\": {\"O\": 1.0}, \"18\": {\"O\": 1.0}, \"19\": {\"O\": 1.0}, \"20\": {\"O\": 1.0}, \"21\": {\"O\": 1.0}, \"22\": {\"O\": 1.0}, \"23\": {\"O\": 1.0}, \"24\": {\"O\": 1.0}, \"25\": {\"O\": 1.0}, \"26\": {\"O\": 1.0}, \"27\": {\"O\": 1.0}, \"28\": {\"O\": 1.0}, \"29\": {\"O\": 1.0}, \"30\": {\"O\": 1.0}, \"31\": {\"O\": 1.0}, \"32\": {\"O\": 1.0}, \"33\": {\"O\": 1.0}, \"34\": {\"O\": 1.0}, \"35\": {\"O\": 1.0}, \"36\": {\"O\": 1.0}, \"37\": {\"O\": 1.0}, \"38\": {\"O\": 1.0}, \"39\": {\"O\": 1.0}}" neb_image=2 energy=-39205.78179317044 polarization_c_per_m2="_JSON [0.023082749440721792, -0.02325482595085464, -0.0046059908122378]" pbc="T T T"
Pb       1.19791091       1.39556863      -0.02996320        0       2.00000000       2.00000000       0.00028652       0.00064920       0.00486243
Pb       4.70340818      10.26179786       0.02410832        0       2.00000000       2.00000000      -0.00036586       0.00273258      -0.00042855
Pb       1.77141365       7.29686917       0.02374887        0       2.00000000       2.00000000      -0.00083013       0.00127284      -0.00101581
Pb       4.11807846       4.38560904      -0.03298739        0       2.00000000       2.00000000      -0.00017136       0.00211769       0.00445335
Pb       1.21550511       1.48521471       4.07203272        4       2.00000000       2.00000000       0.00161762       0.00178317       0.00407018
Pb       4.62675593      10.22620595       4.09206638        4       2.00000000       2.00000000       0.00095567       0.00110556       0.00068632
Pb       1.73734833       7.35452662       4.09235387        4       2.00000000       2.00000000      -0.00139777       0.00126755       0.00075541
Pb       4.19406728       4.32996135       4.07372348        4       2.00000000       2.00000000      -0.00019987       0.00219881       0.00262783
Zr       4.35609450       1.45098177       2.03153680        8       4.00000000       4.00000000       0.00040383       0.00047562       0.00107045
Zr       1.50924959      10.28371239       6.12836672        8       4.00000000       4.00000000       0.00065952       0.00078606       0.00037330
Zr       1.51277187      10.28986257       2.04737098        8       4.00000000       4.00000000       0.00005700       0.00009515       0.00000786
Zr       4.35374230       1.44457880       6.13294588        8       4.00000000       4.00000000       0.00071016       0.00105939       0.00073797
Zr       4.46207239       7.33057412       6.13794018        8       4.00000000       4.00000000      -0.00038514       0.00046288      -0.00000096
Zr       1.43324330       4.40056165       2.04110811        8       4.00000000       4.00000000      -0.00035246       0.00040446       0.00053753
Zr       1.43016097       4.40623855       6.12440209        8       4.00000000       4.00000000      -0.00017884       0.00029345       0.00081777
Zr       4.46574161       7.32426198       2.03873121        8       4.00000000       4.00000000      -0.00088109       0.00076148       0.00011479
O        4.52027365       1.87527838      -0.00151680       16      -2.00000000      -2.00000000       0.00262025       0.00077204       0.00015195
O        1.28605546       9.93916355       0.00151460       16      -2.00000000      -2.00000000       0.00067662      -0.00159274      -0.00030481
O        4.25704785       7.74400949       0.00175768       16      -2.00000000      -2.00000000      -0.00096157      -0.00001402      -0.00025394
O        1.62984970       4.04075660      -0.00120620       16      -2.00000000      -2.00000000      -0.00150173      -0.00117939       0.00000132
O        4.67715440       1.11559258       4.08697444       20      -2.00000000      -2.00000000       0.00091800      -0.00182773      -0.00021689
O        1.14292327      10.66651729       4.08621783       20      -2.00000000      -2.00000000       0.00088626       0.00087341      -0.00025316
O        4.11617191       7.01316328       4.08627165       20      -2.00000000      -2.00000000      -0.00148864      -0.00202706      -0.00020065
O        1.77295731       4.79253652       4.08722124       20      -2.00000000      -2.00000000       0.00009547       0.00006902      -0.00025281
O        3.10924216       3.07452408       2.31397868       24      -2.00000000      -2.00000000       0.00364298       0.00288479      -0.00232901
O        2.76531028       8.71526188       5.86715573       24      -2.00000000      -2.00000000      -0.00084006      -0.00111611      -0.00098333
O        2.73145546       8.68251249       2.29252800       24      -2.00000000      -2.00000000       0.00035937       0.00048947       0.00033844
O        3.15535492       3.11656925       5.88574868       24      -2.00000000      -2.00000000      -0.00283514      -0.00259436      -0.00208158
O        5.67075718       8.97361655       5.88276780       24      -2.00000000      -2.00000000       0.00048145      -0.00046762      -0.00177656
O        0.14396974       2.84826135       2.32832033       24      -2.00000000      -2.00000000       0.00474224      -0.00471968      -0.00082666
O        0.18949242       2.80531743       5.86620063       24      -2.00000000      -2.00000000      -0.00197020       0.00176435      -0.00321321
O        5.63717034       9.00519994       2.27413142       24      -2.00000000      -2.00000000       0.00156847      -0.00206218       0.00117619
O        2.94802897       5.89101429       1.65764994       32      -2.00000000      -2.00000000      -0.00240853       0.00094544      -0.00169804
O        2.91603845       5.91783041       6.51575903       32      -2.00000000      -2.00000000       0.00015377      -0.00105599       0.00020953
O       -0.02286683       0.00643199       6.52111461       32      -2.00000000      -2.00000000       0.00191336       0.00053692      -0.00002723
O        0.01050608       0.03452373       1.65684527       32      -2.00000000      -2.00000000      -0.00283342      -0.00355950      -0.00267748
O        2.91592581       0.00913835       1.87041464       36      -2.00000000      -2.00000000      -0.00206050       0.00242076      -0.00305109
O        2.86570509       0.05673784       6.30295931       36      -2.00000000      -2.00000000       0.00367990      -0.00257933       0.00057089
O       -0.00440734       5.86896905       6.30381326       36      -2.00000000      -2.00000000      -0.00019884       0.00052138      -0.00084329
O        0.04600241       5.91708689       1.87440094       36      -2.00000000      -2.00000000      -0.00456731      -0.00394776      -0.00112843
40
Lattice="5.873491132173341 0.0 0.0 -0.005264454473091736 11.762727281941729 0.0 0.005926264792732781 0.0002904804462849717 8.177323859345842" Properties=species:S:1:pos:R:3:spacegroup_kinds:I:1:field_charges:R:1:initial_charges:R:1:forces:R:3 spacegroup="P b a m" unit_cell=conventional occupancy="_JSON {\"0\": {\"Pb\": 1.0}, \"1\": {\"Pb\": 1.0}, \"2\": {\"Pb\": 1.0}, \"3\": {\"Pb\": 1.0}, \"4\": {\"Pb\": 1.0}, \"5\": {\"Pb\": 1.0}, \"6\": {\"Pb\": 1.0}, \"7\": {\"Pb\": 1.0}, \"8\": {\"Zr\": 1.0}, \"9\": {\"Zr\": 1.0}, \"10\": {\"Zr\": 1.0}, \"11\": {\"Zr\": 1.0}, \"12\": {\"Zr\": 1.0}, \"13\": {\"Zr\": 1.0}, \"14\": {\"Zr\": 1.0}, \"15\": {\"Zr\": 1.0}, \"16\": {\"O\": 1.0}, \"17\": {\"O\": 1.0}, \"18\": {\"O\": 1.0}, \"19\": {\"O\": 1.0}, \"20\": {\"O\": 1.0}, \"21\": {\"O\": 1.0}, \"22\": {\"O\": 1.0}, \"23\": {\"O\": 1.0}, \"24\": {\"O\": 1.0}, \"25\": {\"O\": 1.0}, \"26\": {\"O\": 1.0}, \"27\": {\"O\": 1.0}, \"28\": {\"O\": 1.0}, \"29\": {\"O\": 1.0}, \"30\": {\"O\": 1.0}, \"31\": {\"O\": 1.0}, \"32\": {\"O\": 1.0}, \"33\": {\"O\": 1.0}, \"34\": {\"O\": 1.0}, \"35\": {\"O\": 1.0}, \"36\": {\"O\": 1.0}, \"37\": {\"O\": 1.0}, \"38\": {\"O\": 1.0}, \"39\": {\"O\": 1.0}}" neb_image=3 energy=-39205.77364274649 polarization_c_per_m2="_JSON [0.022030202840956165, -0.04116331518212555, -0.024188161765303383]" pbc="T T T"
Pb       1.19673516       1.38850502      -0.06567653        0       2.00000000       2.00000000       0.00012373       0.00111060       0.01974018
Pb       4.71141370      10.23697617       0.02452636        0       2.00000000       2.00000000      -0.00166640       0.01567727       0.01260598
Pb       1.78119910       7.28531269       0.02854513        0       2.00000000       2.00000000      -0.00451097       0.00887104       0.00494668
Pb       4.12235365       4.36810062      -0.06552301        0       2.00000000       2.00000000      -0.00136401       0.01504684       0.01479056
Pb       1.20437868       1.47125214       4.04328786        4       2.00000000       2.00000000       0.00695789       0.01486362       0.02659581
Pb       4.62518464      10.21539820       4.08786377        4       2.00000000       2.00000000       0.00449138       0.00902222       0.00804503
Pb       1.75265505       7.34241741       4.08729527        4       2.00000000       2.00000000      -0.00926484       0.00786744       0.00922756
Pb       4.20061983       4.31083774       4.05606966        4       2.00000000       2.00000000      -0.00111257       0.01412454       0.01022482
Zr       4.35587179       1.44645217       2.02444290        8       4.00000000       4.00000000       0.00258869       0.00360957       0.00503882
Zr       1.50952237      10.27537779       6.12867969        8       4.00000000       4.00000000       0.00164915       0.00284426       0.00325053
Zr       1.51590608      10.28637709       2.04831688        8       4.00000000       4.00000000       0.00104464       0.00216546       0.00185959
Zr       4.35314409       1.43612216       6.13124055        8       4.00000000       4.00000000       0.00218627       0.00441374       0.00349859
Zr       4.47212336       7.32502871       6.14120435        8       4.00000000       4.00000000      -0.00290608       0.00457701       0.00118820
Zr       1.43844755       4.39672755       2.03833858        8       4.00000000       4.00000000      -0.00068968       0.00089165       0.00191435
Zr       1.43608443       4.40267484       6.12179079        8       4.00000000       4.00000000      -0.00092001       0.00320209       0.00352162
Zr       4.47773060       7.31691031       2.03862878        8       4.00000000       4.00000000      -0.00368935       0.00317747       0.00196383
O        4.50238171       1.86896684      -0.00252118       16      -2.00000000      -2.00000000       0.01603911       0.00535366      -0.00006429
O        1.28298099       9.94966977       0.00378176       16      -2.00000000      -2.00000000       0.00423694      -0.01033571      -0.00132281
O        4.26937143       7.74250504       0.00357582       16      -2.00000000      -2.00000000      -0.00360760       0.00029278      -0.00070582
O        1.64416042       4.04903984      -0.00102693       16      -2.00000000      -2.00000000      -0.00961844      -0.00850060      -0.00091006
O        4.67396807       1.12889440       4.09113270       20      -2.00000000      -2.00000000       0.00554184      -0.01687510      -0.00143971
O        1.14006029      10.65674002       4.09074037       20      -2.00000000      -2.00000000       0.00372352       0.00462440      -0.00184994
O        4.13336716       7.02880739       4.09035819       20      -2.00000000      -2.00000000      -0.00925991      -0.01243804      -0.00138885
O        1.77623761       4.79196496       4.09168848       20      -2.00000000      -2.00000000       0.00140418       0.00309760      -0.00145256
O        3.08480682       3.05227617       2.33369978       24      -2.00000000      -2.00000000       0.00990030       0.00582192      -0.00604167
O        2.77419578       8.71898504       5.88070377       24      -2.00000000      -2.00000000      -0.00049055      -0.00220962      -0.00749086
O        2.73451338       8.67833949       2.29124171       24      -2.00000000      -2.00000000      -0.00728689      -0.00688587      -0.00296543
O        3.18000236       3.13406057       5.90399488       24      -2.00000000      -2.00000000      -0.00834026      -0.00802810      -0.01040952
O        5.67064318       8.97901663       5.90233981       24      -2.00000000      -2.00000000       0.00758423      -0.00735188      -0.01423580
O        0.10864630       2.88445517       2.33680377       24      -2.00000000      -2.00000000       0.01588763      -0.01627037       0.00308401
O        0.20511394       2.79395348       5.89310420       24      -2.00000000      -2.00000000      -0.00300313       0.00277324      -0.02187436
O        5.63190964       9.01873741       2.26662436       24      -2.00000000      -2.00000000      -0.00028097      -0.00297760       0.00164275
O        2.97021003       5.88298412       1.67204391       32      -2.00000000      -2.00000000      -0.00119068      -0.00512927      -0.01327901
O        2.92379554       5.92242331       6.51866505       32      -2.00000000      -2.00000000      -0.00258097      -0.00336748       0.00220640
O       -0.03300367       0.00482708       6.52529858       32      -2.00000000      -2.00000000       0.00568651      -0.00049836       0.00061519
O        0.03217749       0.06205237       1.67879440       32      -2.00000000      -2.00000000      -0.01038064      -0.01607396      -0.02049082
O        2.93161576      -0.00760164       1.89533523       36      -2.00000000      -2.00000000       0.00007102       0.00206364      -0.02078751
O        2.84346619       0.07411507       6.30287099       36      -2.00000000      -2.00000000       0.01134934      -0.00645819       0.00063482
O        0.00570251       5.86804032       6.31434911       36      -2.00000000      -2.00000000      -0.00783812      -0.00348864      -0.00453092
O        0.08320740       5.94601485       1.88455166       36      -2.00000000      -2.00000000      -0.01046430      -0.00860325      -0.00535540
40