40
Lattice="5.871972 0.0 0.0 0.0 11.774171 0.0 0.0 0.0 8.178836" Properties=species:S:1:pos:R:3:spacegroup_kinds:I:1:field_charges:R:1:initial_charges:R:1:forces:R:3 spacegroup="P b a m" unit_cell=conventional occupancy="_JSON {\"0\": {\"Pb\": 1.0}, \"1\": {\"Pb\": 1.0}, \"2\": {\"Pb\": 1.0}, \"3\": {\"Pb\": 1.0}, \"4\": {\"Pb\": 1.0}, \"5\": {\"Pb\": 1.0}, \"6\": {\"Pb\": 1.0}, \"7\": {\"Pb\": 1.0}, \"8\": {\"Zr\": 1.0}, \"9\": {\"Zr\": 1.0}, \"10\": {\"Zr\": 1.0}, \"11\": {\"Zr\": 1.0}, \"12\": {\"Zr\": 1.0}, \"13\": {\"Zr\": 1.0}, \"14\": {\"Zr\": 1.0}, \"15\": {\"Zr\": 1.0}, \"16\": {\"O\": 1.0}, \"17\": {\"O\": 1.0}, \"18\": {\"O\": 1.0}, \"19\": {\"O\": 1.0}, \"20\": {\"O\": 1.0}, \"21\": {\"O\": 1.0}, \"22\": {\"O\": 1.0}, \"23\": {\"O\": 1.0}, \"24\": {\"O\": 1.0}, \"25\": {\"O\": 1.0}, \"26\": {\"O\": 1.0}, \"27\": {\"O\": 1.0}, \"28\": {\"O\": 1.0}, \"29\": {\"O\": 1.0}, \"30\": {\"O\": 1.0}, \"31\": {\"O\": 1.0}, \"32\": {\"O\": 1.0}, \"33\": {\"O\": 1.0}, \"34\": {\"O\": 1.0}, \"35\": {\"O\": 1.0}, \"36\": {\"O\": 1.0}, \"37\": {\"O\": 1.0}, \"38\": {\"O\": 1.0}, \"39\": {\"O\": 1.0}}" neb_image=0 energy=-39205.764739708866 polarization_c_per_m2="_JSON [-0.0012611573750599988, 0.0349032942069816, -1.3526432333244794e-15]" pbc="T T T"
Pb       1.17373646       1.45287285      -0.00000000        0       2.00000000       2.00000000       0.01811033      -0.02203254      -0.00000000
Pb       4.69823554      10.32129815      -0.00000000        0       2.00000000       2.00000000       0.02886545      -0.02506414      -0.00000000
Pb       1.76224954       7.33995835      -0.00000000        0       2.00000000       2.00000000       0.02886545      -0.02203254      -0.00000000
Pb       4.10972246       4.43421265      -0.00000000        0       2.00000000       2.00000000       0.01811033      -0.02506414      -0.00000000
Pb       1.22777814       1.51267559       4.08941800        4       2.00000000       2.00000000       0.01833476      -0.01928032       0.00000000
Pb       4.64419386      10.26149541       4.08941800        4       2.00000000       2.00000000       0.02864101      -0.02781637       0.00000000
Pb       1.70820786       7.39976109       4.08941800        4       2.00000000       2.00000000       0.02864101      -0.01928032       0.00000000
Pb       4.16376414       4.37440991       4.08941800        4       2.00000000       2.00000000       0.01833476      -0.02781637       0.00000000
Zr       4.35630128       1.46381254       2.04209901        8       4.00000000       4.00000000       0.04074979      -0.05115421       0.00128299
Zr       1.51567072      10.31035846       6.13673699        8       4.00000000       4.00000000       0.05320176      -0.04303916      -0.00128299
Zr       1.51567072      10.31035846       2.04209901        8       4.00000000       4.00000000       0.05320176      -0.04303916       0.00128299
Zr       4.35630128       1.46381254       6.13673699        8       4.00000000       4.00000000       0.04074979      -0.05115421      -0.00128299
Zr       4.45165672       7.35089804       6.13673699        8       4.00000000       4.00000000       0.05320176      -0.05115421      -0.00128299
Zr       1.42031528       4.42327296       2.04209901        8       4.00000000       4.00000000       0.04074979      -0.04303916       0.00128299
Zr       1.42031528       4.42327296       6.13673699        8       4.00000000       4.00000000       0.04074979      -0.04303916      -0.00128299
Zr       4.45165672       7.35089804       2.04209901        8       4.00000000       4.00000000       0.05320176      -0.05115421       0.00128299
O        4.55672239       1.85661981      -0.00000000       16      -2.00000000      -2.00000000      -0.01967453       0.01834648       0.00000000
O        1.31524961       9.91755119      -0.00000000       16      -2.00000000      -2.00000000      -0.02730124       0.02875020       0.00000000
O        4.25123561       7.74370531      -0.00000000       16      -2.00000000      -2.00000000      -0.02730124       0.01834648       0.00000000
O        1.62073639       4.03046569      -0.00000000       16      -2.00000000      -2.00000000      -0.01967453       0.02875020       0.00000000
O        4.70256932       1.10550087       4.08941800       20      -2.00000000      -2.00000000      -0.01760133       0.03098644      -0.00000000
O        1.16940268      10.66867013       4.08941800       20      -2.00000000      -2.00000000      -0.02937445       0.01611025      -0.00000000
O        4.10538868       6.99258637       4.08941800       20      -2.00000000      -2.00000000      -0.02937445       0.03098644      -0.00000000
O        1.76658332       4.78158463       4.08941800       20      -2.00000000      -2.00000000      -0.01760133       0.01611025      -0.00000000
O        3.12999853       3.08379167       2.30409508       24      -2.00000000      -2.00000000      -0.03345472       0.03894801      -0.00556508
O        2.74197347       8.69037933       5.87474092       24      -2.00000000      -2.00000000      -0.01352106       0.00814867       0.00556508
O        2.74197347       8.69037933       2.30409508       24      -2.00000000      -2.00000000      -0.01352106       0.00814867      -0.00556508
O        3.12999853       3.08379167       5.87474092       24      -2.00000000      -2.00000000      -0.03345472       0.03894801       0.00556508
O        5.67795947       8.97087717       5.87474092       24      -2.00000000      -2.00000000      -0.01352106       0.03894801       0.00556508
O        0.19401253       2.80329383       2.30409508       24      -2.00000000      -2.00000000      -0.03345472       0.00814867      -0.00556508
O        0.19401253       2.80329383       5.87474092       24      -2.00000000      -2.00000000      -0.03345472       0.00814867       0.00556508
O        5.67795947       8.97087717       2.30409508       24      -2.00000000      -2.00000000      -0.01352106       0.03894801      -0.00556508
O        2.93598600       5.88708550       1.65175084       32      -2.00000000      -2.00000000      -0.02348789       0.02354834       0.00096873
O        2.93598600       5.88708550       6.52708516       32      -2.00000000      -2.00000000      -0.02348789       0.02354834      -0.00096873
O        0.00000000       0.00000000       6.52708516       32      -2.00000000      -2.00000000      -0.02348789       0.02354834      -0.00096873
O       -0.00000000       0.00000000       1.65175084       32      -2.00000000      -2.00000000      -0.02348789       0.02354834       0.00096873
O        2.93598600       0.00000000       1.87160782       36      -2.00000000      -2.00000000      -0.02348789       0.02354834       0.00119428
O        2.93598600       0.00000000       6.30722818       36      -2.00000000      -2.00000000      -0.02348789       0.02354834      -0.00119428
O        0.00000000       5.88708550       6.30722818       36      -2.00000000      -2.00000000      -0.02348789       0.02354834      -0.00119428
O        0.00000000       5.88708550       1.87160782       36      -2.00000000      -2.00000000      -0.02348789       0.02354834       0.00119428
40
Lattice="5.869494203023056 0.0 0.0 -0.004794518460807826 11.765896351438359 0.0 -2.621837243492117e-05 -4.82703934250152e-07 8.171530882794046" Properties=species:S:1:pos:R:3:spacegroup_kinds:I:1:field_charges:R:1:initial_charges:R:1:forces:R:3 spacegroup="P b a m" unit_cell=conventional occupancy="_JSON {\"0\": {\"Pb\": 1.0}, \"1\": {\"Pb\": 1.0}, \"2\": {\"Pb\": 1.0}, \"3\": {\"Pb\": 1.0}, \"4\": {\"Pb\": 1.0}, \"5\": {\"Pb\": 1.0}, \"6\": {\"Pb\": 1.0}, \"7\": {\"Pb\": 1.0}, \"8\": {\"Zr\": 1.0}, \"9\": {\"Zr\": 1.0}, \"10\": {\"Zr\": 1.0}, \"11\": {\"Zr\": 1.0}, \"12\": {\"Zr\": 1.0}, \"13\": {\"Zr\": 1.0}, \"14\": {\"Zr\": 1.0}, \"15\": {\"Zr\": 1.0}, \"16\": {\"O\": 1.0}, \"17\": {\"O\": 1.0}, \"18\": {\"O\": 1.0}, \"19\": {\"O\": 1.0}, \"20\": {\"O\": 1.0}, \"21\": {\"O\": 1.0}, \"22\": {\"O\": 1.0}, \"23\": {\"O\": 1.0}, \"24\": {\"O\": 1.0}, \"25\": {\"O\": 1.0}, \"26\": {\"O\": 1.0}, \"27\": {\"O\": 1.0}, \"28\": {\"O\": 1.0}, \"29\": {\"O\": 1.0}, \"30\": {\"O\": 1.0}, \"31\": {\"O\": 1.0}, \"32\": {\"O\": 1.0}, \"33\": {\"O\": 1.0}, \"34\": {\"O\": 1.0}, \"35\": {\"O\": 1.0}, \"36\": {\"O\": 1.0}, \"37\": {\"O\": 1.0}, \"38\": {\"O\": 1.0}, \"39\": {\"O\": 1.0}}" neb_image=1 energy=-39205.78203222777 polarization_c_per_m2="_JSON [0.02028099541793549, -0.007309844221163945, 2.680603381114878e-05]" pbc="T T T"
Pb       1.19185094       1.41311809       0.00026214        0       2.00000000       2.00000000       0.00416362      -0.00843850      -0.00003074
Pb       4.70483975      10.27830945      -0.00023346        0       2.00000000       2.00000000       0.00274259      -0.00777002       0.00001184
Pb       1.76978768       7.30663544      -0.00022608        0       2.00000000       2.00000000       0.00243052      -0.00612040       0.00001326
Pb       4.11711600       4.39862476       0.00028731        0       2.00000000       2.00000000       0.00234627      -0.00707279      -0.00003382
Pb       1.22252836       1.49255594       4.08587549        4       2.00000000       2.00000000      -0.00093821      -0.00414321      -0.00002189
Pb       4.63375528      10.23395236       4.08570362        4       2.00000000       2.00000000      -0.00096694      -0.00442451      -0.00000048
Pb       1.72860460       7.36591552       4.08570075        4       2.00000000       2.00000000       0.00524969      -0.00621719      -0.00000092
Pb       4.18559735       4.34252708       4.08586697        4       2.00000000       2.00000000       0.00550751      -0.00625643      -0.00001682
Zr       4.35579411       1.45172529       2.03683197        8       4.00000000       4.00000000       0.00039956      -0.00238713      -0.00076096
Zr       1.51431886      10.29141977       6.12762481        8       4.00000000       4.00000000       0.00072589      -0.00254376      -0.00078686
Zr       1.51428680      10.29136386       2.04386990        8       4.00000000       4.00000000       0.00073027      -0.00253834       0.00078630
Zr       4.35581811       1.45178504       6.13476163        8       4.00000000       4.00000000       0.00039756      -0.00239201       0.00074970
Zr       4.45931639       7.33201081       6.13419740        8       4.00000000       4.00000000       0.00271353      -0.00296603       0.00064508
Zr       1.42813722       4.40706157       2.04324776        8       4.00000000       4.00000000       0.00221928      -0.00284242       0.00063635
Zr       1.42816739       4.40700628       6.12834077        8       4.00000000       4.00000000       0.00221670      -0.00283981      -0.00064493
Zr       4.45928373       7.33207005       2.03729221        8       4.00000000       4.00000000       0.00271811      -0.00297009      -0.00064364
O        4.53352680       1.87321082       0.00001357       16      -2.00000000      -2.00000000      -0.00448687       0.00385874      -0.00000128
O        1.29449647       9.93174385      -0.00001285       16      -2.00000000      -2.00000000      -0.00350536       0.00459148       0.00000175
O        4.25044832       7.74402118      -0.00001437       16      -2.00000000      -2.00000000       0.00094908       0.00123678       0.00000208
O        1.62332105       4.03705245       0.00001218       16      -2.00000000      -2.00000000       0.00111022       0.00204625      -0.00000034
O        4.68354187       1.11452199       4.08575872       20      -2.00000000      -2.00000000      -0.00361561       0.00211157       0.00000098
O        1.14932318      10.66891494       4.08576699       20      -2.00000000      -2.00000000      -0.00330072       0.00165934       0.00000098
O        4.10831743       7.00366257       4.08576633       20      -2.00000000      -2.00000000       0.00167445       0.00348112       0.00000088
O        1.76974772       4.78882706       4.08575705       20      -2.00000000      -2.00000000       0.00128828       0.00228708       0.00000148
O        3.13243093       3.09499016       2.29805186       24      -2.00000000      -2.00000000       0.00102984       0.00283564      -0.00082101
O        2.74584926       8.69558987       5.86940582       24      -2.00000000      -2.00000000       0.00192776       0.00251994      -0.00003041
O        2.74617146       8.69589717       2.30225851       24      -2.00000000      -2.00000000       0.00191071       0.00250046       0.00002971
O        3.13203243       3.09462185       5.87324962       24      -2.00000000      -2.00000000       0.00107762       0.00287728       0.00085337
O        5.66018502       8.98172086       5.88291994       24      -2.00000000      -2.00000000      -0.00249484       0.00367763       0.00289925
O        0.17661763       2.81608213       2.31244169       24      -2.00000000      -2.00000000      -0.00358559       0.00328584       0.00229416
O        0.17622392       2.81645220       5.85889689       24      -2.00000000      -2.00000000      -0.00353818       0.00323979      -0.00226982
O        5.66050627       8.98141975       2.28876697       24      -2.00000000      -2.00000000      -0.00251129       0.00369543      -0.00290315
O        2.92598478       5.90260731       1.65380760       32      -2.00000000      -2.00000000      -0.00130294       0.00421962       0.00078565
O        2.92627837       5.90236267       6.51772088       32      -2.00000000      -2.00000000      -0.00132791       0.00423963      -0.00077989
O       -0.00713615       0.01298610       6.52017301       32      -2.00000000      -2.00000000      -0.00159729       0.00278231      -0.00023368
O       -0.00743168       0.01273938       1.65132501       32      -2.00000000      -2.00000000      -0.00156471       0.00280967       0.00024742
O        2.90038544       0.02643874       1.86861731       36      -2.00000000      -2.00000000      -0.00740007       0.00567662      -0.00028239
O        2.90083931       0.02600824       6.30291441       36      -2.00000000      -2.00000000      -0.00744348       0.00571577       0.00028979
O        0.00688684       5.88430561       6.30121013       36      -2.00000000      -2.00000000       0.00200544       0.00026796      -0.00007764
O        0.00642560       5.88386838       1.87028366       36      -2.00000000      -2.00000000       0.00204551       0.00030670       0.00009064
40
Lattice="5.870449119872568 0.0 0.0 -0.008049571737886462 11.765287473017326 0.0 0.0029709477641631167 6.110462655840708e-05 8.172522580760997" Properties=species:S:1:pos:R:3:spacegroup_kinds:I:1:field_charges:R:1:initial_charges:R:1:forces:R:3 spacegroup="P b a m" unit_cell=conventional occupancy="_JSON {\"0\": {\"Pb\": 1.0}, \"1\": {\"Pb\": 1.0}, \"2\": {\"Pb\": 1.0}, \"3\": {\"Pb\": 1.0}, \"4\": {\"Pb\": 1.0}, \"5\": {\"Pb\": 1.0}, \"6\": {\"Pb\": 1.0}, \"7\": {\"Pb\": 1.0}, \"8\": {\"Zr\": 1.0}, \"9\": {\"Zr\": 1.0}, \"10\": {\"Zr\": 1.0}, \"11\": {\"Zr\": 1.0}, \"12\": {\"Zr\": 1.0}, \"13\": {\"Zr\": 1.0}, \"14\": {\"Zr\": 1.0}, \"15\": {\"Zr\": 1.0}, \"16\": {\"O\": 1.0}, \"17\": {\"O\": 1.0}, \"18\": {\"O\": 1.0}, \"19\": {\"O\": 1.0}, \"20\": {\"O\": 1.0}, \"21\": {\"O\": 1.0}, \"22\": {\"O\": 1.0}, \"23\": {\"O\": 1.0}, \"24\": {\"O\": 1.0}, \"25\": {\"O\": 1.0}, \"26\": {\"O\": 1.0}, \"27\": {\"O\": 1.0}, \"28\": {\"O\": 1.0}, \"29\": {\"O\": 1.0}, \"30\": {\"O\": 1.0}, \"31\": {\"O\": 1.0}, \"32\": {\"O\": 1.0}, \"33\": {\"O\": 1.0}, \"34\": {\"O\": 1.0}, \"35\": {\"O\": 1.0}, \"36\": {\"O\": 1.0}, \"37\": {\"O\": 1.0}, \"38\": {\"O\": 1.0}, \"39\": {\"O\": 1.0}}" neb_image=2 energy=-39205.781700596155 polarization_c_per_m2="_JSON [0.023051631114232748, -0.024298485211915816, -0.005601745341390696]" pbc="T T T"
Pb       1.19779661       1.39475839      -0.03043012        0       2.00000000       2.00000000       0.00044892       0.00084470       0.00549515
Pb       4.70369911      10.26055771       0.02290789        0       2.00000000       2.00000000      -0.00050016       0.00344311       0.00029059
Pb       1.77194920       7.29636235       0.02258355        0       2.00000000       2.00000000      -0.00114484       0.00159930      -0.00045717
Pb       4.11804165       4.38469978      -0.03334171        0       2.00000000       2.00000000      -0.00013573       0.00282486       0.00499476
Pb       1.21470406       1.48466209       4.07111514        4       2.00000000       2.00000000       0.00204508       0.00229160       0.00502626
Pb       4.62642048      10.22565427       4.09128960        4       2.00000000       2.00000000       0.00114314       0.00155796       0.00118585
Pb       1.73803492       7.35387439       4.09137739        4       2.00000000       2.00000000      -0.00187041       0.00164750       0.00143458
Pb       4.19443004       4.32894589       4.07314921        4       2.00000000       2.00000000      -0.00032028       0.00280366       0.00309634
Zr       4.35587258       1.45061073       2.03128624        8       4.00000000       4.00000000       0.00058601       0.00066043       0.00127263
Zr       1.50905041      10.28342380       6.12812891        8       4.00000000       4.00000000       0.00074610       0.00093480       0.00056104
Zr       1.51258132      10.28961318       2.04728397        8       4.00000000       4.00000000       0.00012502       0.00018291       0.00010154
Zr       4.35368488       1.44423377       6.13294617        8       4.00000000       4.00000000       0.00084467       0.00128230       0.00086805
Zr       4.46261229       7.33015241       6.13784068        8       4.00000000       4.00000000      -0.00057101       0.00071357       0.00010320
Zr       1.43333055       4.40052107       2.04106883        8       4.00000000       4.00000000      -0.00039048       0.00042521       0.00061704
Zr       1.43048500       4.40590782       6.12426838        8       4.00000000       4.00000000      -0.00027487       0.00046501       0.00098280
Zr       4.46621465       7.32405113       2.03849520        8       4.00000000       4.00000000      -0.00107303       0.00090559       0.00026685
O        4.51951047       1.87511764      -0.00148276       16      -2.00000000      -2.00000000       0.00314726       0.00093245       0.00014613
O        1.28547376       9.93973820       0.00154972       16      -2.00000000      -2.00000000       0.00095385      -0.00202358      -0.00034482
O        4.25769718       7.74400171       0.00175250       16      -2.00000000      -2.00000000      -0.00118090       0.00003004      -0.00026258
O        1.63067061       4.04115245      -0.00111915       16      -2.00000000      -2.00000000      -0.00194724      -0.00153456      -0.00004871
O        4.67690304       1.11599971       4.08711034       20      -2.00000000      -2.00000000       0.00119598      -0.00245729      -0.00028442
O        1.14242213      10.66611762       4.08639747       20      -2.00000000      -2.00000000       0.00110368       0.00107536      -0.00034819
O        4.11683763       7.01411936       4.08642466       20      -2.00000000      -2.00000000      -0.00186464      -0.00262105      -0.00027230
O        1.77324567       4.79265153       4.08738494       20      -2.00000000      -2.00000000       0.00001835       0.00020700      -0.00033810
O        3.10889860       3.07437240       2.31448620       24      -2.00000000      -2.00000000       0.00389289       0.00294238      -0.00251911
O        2.76434928       8.71437994       5.86837310       24      -2.00000000      -2.00000000      -0.00053492      -0.00090686      -0.00152723
O        2.73242667       8.68340236       2.29272505       24      -2.00000000      -2.00000000      -0.00023041      -0.00011030       0.00015242
O        3.15573667       3.11666159       5.88609059       24      -2.00000000      -2.00000000      -0.00324375      -0.00291574      -0.00256827
O        5.66934551       8.97508268       5.88415544       24      -2.00000000      -2.00000000       0.00113033      -0.00105047      -0.00251742
O        0.14288451       2.84932991       2.32867299       24      -2.00000000      -2.00000000       0.00532389      -0.00531480      -0.00083688
O        0.18924925       2.80572062       5.86675909       24      -2.00000000      -2.00000000      -0.00210556       0.00183639      -0.00394879
O        5.63760083       9.00520750       2.27417935       24      -2.00000000      -2.00000000       0.00134523      -0.00201035       0.00112654
O        2.94831988       5.89135341       1.65836363       32      -2.00000000      -2.00000000      -0.00227920       0.00051938      -0.00233518
O        2.91736620       5.91728870       6.51600769       32      -2.00000000      -2.00000000      -0.00019161      -0.00103671       0.00021442
O       -0.02263672       0.00706717       6.52128737       32      -2.00000000      -2.00000000       0.00206547       0.00040294      -0.00004280
O        0.01052434       0.03516182       1.65765716       32      -2.00000000      -2.00000000      -0.00295402      -0.00402083      -0.00341920
O        2.91510886       0.00972228       1.87134958       36      -2.00000000      -2.00000000      -0.00165687       0.00214376      -0.00385343
O        2.86561148       0.05649232       6.30313871       36      -2.00000000      -2.00000000       0.00404967      -0.00269172       0.00051802
O       -0.00246922       5.87037308       6.30417554       36      -2.00000000      -2.00000000      -0.00085174       0.00014112      -0.00100964
O        0.04674264       5.91760897       1.87495247       36      -2.00000000      -2.00000000      -0.00484386      -0.00411904      -0.00152000
40
Lattice="5.874316805640032 0.0 0.0 -0.006352854676987513 11.762996328502872 0.0 0.0058904643144548526 0.0003935397445711847 8.17787765831676" Properties=species:S:1:pos:R:3:spacegroup_kinds:I:1:field_charges:R:1:initial_charges:R:1:forces:R:3 spacegroup="P b a m" unit_cell=conventional occupancy="_JSON {\"0\": {\"Pb\": 1.0}, \"1\": {\"Pb\": 1.0}, \"2\": {\"Pb\": 1.0}, \"3\": {\"Pb\": 1.0}, \"4\": {\"Pb\": 1.0}, \"5\": {\"Pb\": 1.0}, \"6\": {\"Pb\": 1.0}, \"7\": {\"Pb\": 1.0}, \"8\": {\"Zr\": 1.0}, \"9\": {\"Zr\": 1.0}, \"10\": {\"Zr\": 1.0}, \"11\": {\"Zr\": 1.0}, \"12\": {\"Zr\": 1.0}, \"13\": {\"Zr\": 1.0}, \"14\": {\"Zr\": 1.0}, \"15\": {\"Zr\": 1.0}, \"16\": {\"O\": 1.0}, \"17\": {\"O\": 1.0}, \"18\": {\"O\": 1.0}, \"19\": {\"O\": 1.0}, \"20\": {\"O\": 1.0}, \"21\": {\"O\": 1.0}, \"22\": {\"O\": 1.0}, \"23\": {\"O\": 1.0}, \"24\": {\"O\": 1.0}, \"25\": {\"O\": 1.0}, \"26\": {\"O\": 1.0}, \"27\": {\"O\": 1.0}, \"28\": {\"O\": 1.0}, \"29\": {\"O\": 1.0}, \"30\": {\"O\": 1.0}, \"31\": {\"O\": 1.0}, \"32\": {\"O\": 1.0}, \"33\": {\"O\": 1.0}, \"34\": {\"O\": 1.0}, \"35\": {\"O\": 1.0}, \"36\": {\"O\": 1.0}, \"37\": {\"O\": 1.0}, \"38\": {\"O\": 1.0}, \"39\": {\"O\": 1.0}}" neb_image=3 energy=-39205.77221367672 polarization_c_per_m2="_JSON [0.02225377403400283, -0.04428723593227037, -0.027929733544212024]" pbc="T T T"
Pb       1.19541454       1.38789273      -0.06618219        0       2.00000000       2.00000000       0.00059586       0.00090431       0.02175506
Pb       4.71186107      10.23465935       0.01861554        0       2.00000000       2.00000000      -0.00163568       0.01739140       0.01539680
Pb       1.78247418       7.28366483       0.02302151        0       2.00000000       2.00000000      -0.00553533       0.00892917       0.00699569
Pb       4.12181902       4.36365780      -0.06572410        0       2.00000000       2.00000000      -0.00170112       0.01713625       0.01690593
Pb       1.20269843       1.46878455       4.03998059        4       2.00000000       2.00000000       0.00743428       0.01680810       0.03030859
Pb       4.62444957      10.21254494       4.08470496        4       2.00000000       2.00000000       0.00455047       0.01059016       0.00959786
Pb       1.75507943       7.34104956       4.08272308        4       2.00000000       2.00000000      -0.01032947       0.00948240       0.01230836
Pb       4.20186887       4.30888200       4.05492592        4       2.00000000       2.00000000      -0.00148144       0.01587579       0.01130626
Zr       4.35519233       1.44556458       2.02406271        8       4.00000000       4.00000000       0.00292520       0.00394039       0.00549898
Zr       1.50859571      10.27527122       6.12793674        8       4.00000000       4.00000000       0.00161083       0.00318908       0.00374734
Zr       1.51467959      10.28614577       2.04771317        8       4.00000000       4.00000000       0.00119172       0.00237771       0.00232540
Zr       4.35310954       1.43544367       6.13123521        8       4.00000000       4.00000000       0.00231631       0.00495543       0.00396535
Zr       4.47317619       7.32356662       6.14084519        8       4.00000000       4.00000000      -0.00323450       0.00521225       0.00166559
Zr       1.43821231       4.39697483       2.03837234        8       4.00000000       4.00000000      -0.00084675       0.00086788       0.00224631
Zr       1.43651416       4.40170445       6.12159810        8       4.00000000       4.00000000      -0.00101545       0.00349245       0.00390515
Zr       4.47841247       7.31651799       2.03754230        8       4.00000000       4.00000000      -0.00408542       0.00354023       0.00242803
O        4.50115462       1.86856606      -0.00234335       16      -2.00000000      -2.00000000       0.01698374       0.00598697      -0.00016261
O        1.28065882       9.95174359       0.00379146       16      -2.00000000      -2.00000000       0.00514661      -0.01155953      -0.00145984
O        4.27009549       7.74219508       0.00338828       16      -2.00000000      -2.00000000      -0.00411955       0.00090749      -0.00073960
O        1.64619224       4.05100069      -0.00063087       16      -2.00000000      -2.00000000      -0.01071616      -0.00979404      -0.00115519
O        4.67315944       1.13283336       4.09176613       20      -2.00000000      -2.00000000       0.00641253      -0.01960234      -0.00169527
O        1.13830404      10.65704870       4.09153650       20      -2.00000000      -2.00000000       0.00369269       0.00544954      -0.00214995
O        4.13491337       7.03103637       4.09103101       20      -2.00000000      -2.00000000      -0.01012342      -0.01484316      -0.00162520
O        1.77705046       4.79027172       4.09244507       20      -2.00000000      -2.00000000       0.00137817       0.00393079      -0.00176755
O        3.08738195       3.05566452       2.33225858       24      -2.00000000      -2.00000000       0.01012722       0.00561437      -0.00623512
O        2.77130397       8.71742869       5.88374301       24      -2.00000000      -2.00000000       0.00019392      -0.00166384      -0.00989401
O        2.74032483       8.68507728       2.29413986       24      -2.00000000      -2.00000000      -0.00909785      -0.00888384      -0.00297088
O        3.18209035       3.13558634       5.90740419       24      -2.00000000      -2.00000000      -0.00904158      -0.00859091      -0.01210834
O        5.66663876       8.98264377       5.90614380       24      -2.00000000      -2.00000000       0.00895726      -0.00855590      -0.01624775
O        0.10905339       2.88393783       2.33568000       24      -2.00000000      -2.00000000       0.01664835      -0.01709661       0.00350304
O        0.20536347       2.79393688       5.89711626       24      -2.00000000      -2.00000000      -0.00292625       0.00260876      -0.02499926
O        5.63615719       9.01562933       2.26906358       24      -2.00000000      -2.00000000      -0.00139221      -0.00229241       0.00109970
O        2.96566490       5.88846480       1.67587084       32      -2.00000000      -2.00000000       0.00047375      -0.00737000      -0.01636842
O        2.92541560       5.92250093       6.51910710       32      -2.00000000      -2.00000000      -0.00332047      -0.00328288       0.00242298
O       -0.03364576       0.00550514       6.52608165       32      -2.00000000      -2.00000000       0.00607335      -0.00066431       0.00083231
O        0.02911961       0.06131078       1.68191658       32      -2.00000000      -2.00000000      -0.01059099      -0.01706774      -0.02364484
O        2.92564082      -0.00183665       1.89879212       36      -2.00000000      -2.00000000       0.00148735       0.00079738      -0.02322946
O        2.84313479       0.07385296       6.30419314       36      -2.00000000      -2.00000000       0.01196550      -0.00655586       0.00008677
O        0.00920927       5.87070380       6.31509957       36      -2.00000000      -2.00000000      -0.00897798      -0.00412384      -0.00459020
O        0.07965950       5.94280326       1.88707663       36      -2.00000000      -2.00000000      -0.00999349      -0.00804109      -0.00725799
40