40
Lattice="5.871972 0.0 0.0 0.0 11.774171 0.0 0.0 0.0 8.178836" Properties=species:S:1:pos:R:3:spacegroup_kinds:I:1:field_charges:R:1:initial_charges:R:1:forces:R:3 spacegroup="P b a m" unit_cell=conventional occupancy="_JSON {\"0\": {\"Pb\": 1.0}, \"1\": {\"Pb\": 1.0}, \"2\": {\"Pb\": 1.0}, \"3\": {\"Pb\": 1.0}, \"4\": {\"Pb\": 1.0}, \"5\": {\"Pb\": 1.0}, \"6\": {\"Pb\": 1.0}, \"7\": {\"Pb\": 1.0}, \"8\": {\"Zr\": 1.0}, \"9\": {\"Zr\": 1.0}, \"10\": {\"Zr\": 1.0}, \"11\": {\"Zr\": 1.0}, \"12\": {\"Zr\": 1.0}, \"13\": {\"Zr\": 1.0}, \"14\": {\"Zr\": 1.0}, \"15\": {\"Zr\": 1.0}, \"16\": {\"O\": 1.0}, \"17\": {\"O\": 1.0}, \"18\": {\"O\": 1.0}, \"19\": {\"O\": 1.0}, \"20\": {\"O\": 1.0}, \"21\": {\"O\": 1.0}, \"22\": {\"O\": 1.0}, \"23\": {\"O\": 1.0}, \"24\": {\"O\": 1.0}, \"25\": {\"O\": 1.0}, \"26\": {\"O\": 1.0}, \"27\": {\"O\": 1.0}, \"28\": {\"O\": 1.0}, \"29\": {\"O\": 1.0}, \"30\": {\"O\": 1.0}, \"31\": {\"O\": 1.0}, \"32\": {\"O\": 1.0}, \"33\": {\"O\": 1.0}, \"34\": {\"O\": 1.0}, \"35\": {\"O\": 1.0}, \"36\": {\"O\": 1.0}, \"37\": {\"O\": 1.0}, \"38\": {\"O\": 1.0}, \"39\": {\"O\": 1.0}}" neb_image=0 energy=-39205.764739708866 polarization_c_per_m2="_JSON [-0.0012611573750599988, 0.0349032942069816, -1.3526432333244794e-15]" pbc="T T T"
Pb       1.17373646       1.45287285      -0.00000000        0       2.00000000       2.00000000       0.01811033      -0.02203254      -0.00000000
Pb       4.69823554      10.32129815      -0.00000000        0       2.00000000       2.00000000       0.02886545      -0.02506414      -0.00000000
Pb       1.76224954       7.33995835      -0.00000000        0       2.00000000       2.00000000       0.02886545      -0.02203254      -0.00000000
Pb       4.10972246       4.43421265      -0.00000000        0       2.00000000       2.00000000       0.01811033      -0.02506414      -0.00000000
Pb       1.22777814       1.51267559       4.08941800        4       2.00000000       2.00000000       0.01833476      -0.01928032       0.00000000
Pb       4.64419386      10.26149541       4.08941800        4       2.00000000       2.00000000       0.02864101      -0.02781637       0.00000000
Pb       1.70820786       7.39976109       4.08941800        4       2.00000000       2.00000000       0.02864101      -0.01928032       0.00000000
Pb       4.16376414       4.37440991       4.08941800        4       2.00000000       2.00000000       0.01833476      -0.02781637       0.00000000
Zr       4.35630128       1.46381254       2.04209901        8       4.00000000       4.00000000       0.04074979      -0.05115421       0.00128299
Zr       1.51567072      10.31035846       6.13673699        8       4.00000000       4.00000000       0.05320176      -0.04303916      -0.00128299
Zr       1.51567072      10.31035846       2.04209901        8       4.00000000       4.00000000       0.05320176      -0.04303916       0.00128299
Zr       4.35630128       1.46381254       6.13673699        8       4.00000000       4.00000000       0.04074979      -0.05115421      -0.00128299
Zr       4.45165672       7.35089804       6.13673699        8       4.00000000       4.00000000       0.05320176      -0.05115421      -0.00128299
Zr       1.42031528       4.42327296       2.04209901        8       4.00000000       4.00000000       0.04074979      -0.04303916       0.00128299
Zr       1.42031528       4.42327296       6.13673699        8       4.00000000       4.00000000       0.04074979      -0.04303916      -0.00128299
Zr       4.45165672       7.35089804       2.04209901        8       4.00000000       4.00000000       0.05320176      -0.05115421       0.00128299
O        4.55672239       1.85661981      -0.00000000       16      -2.00000000      -2.00000000      -0.01967453       0.01834648       0.00000000
O        1.31524961       9.91755119      -0.00000000       16      -2.00000000      -2.00000000      -0.02730124       0.02875020       0.00000000
O        4.25123561       7.74370531      -0.00000000       16      -2.00000000      -2.00000000      -0.02730124       0.01834648       0.00000000
O        1.62073639       4.03046569      -0.00000000       16      -2.00000000      -2.00000000      -0.01967453       0.02875020       0.00000000
O        4.70256932       1.10550087       4.08941800       20      -2.00000000      -2.00000000      -0.01760133       0.03098644      -0.00000000
O        1.16940268      10.66867013       4.08941800       20      -2.00000000      -2.00000000      -0.02937445       0.01611025      -0.00000000
O        4.10538868       6.99258637       4.08941800       20      -2.00000000      -2.00000000      -0.02937445       0.03098644      -0.00000000
O        1.76658332       4.78158463       4.08941800       20      -2.00000000      -2.00000000      -0.01760133       0.01611025      -0.00000000
O        3.12999853       3.08379167       2.30409508       24      -2.00000000      -2.00000000      -0.03345472       0.03894801      -0.00556508
O        2.74197347       8.69037933       5.87474092       24      -2.00000000      -2.00000000      -0.01352106       0.00814867       0.00556508
O        2.74197347       8.69037933       2.30409508       24      -2.00000000      -2.00000000      -0.01352106       0.00814867      -0.00556508
O        3.12999853       3.08379167       5.87474092       24      -2.00000000      -2.00000000      -0.03345472       0.03894801       0.00556508
O        5.67795947       8.97087717       5.87474092       24      -2.00000000      -2.00000000      -0.01352106       0.03894801       0.00556508
O        0.19401253       2.80329383       2.30409508       24      -2.00000000      -2.00000000      -0.03345472       0.00814867      -0.00556508
O        0.19401253       2.80329383       5.87474092       24      -2.00000000      -2.00000000      -0.03345472       0.00814867       0.00556508
O        5.67795947       8.97087717       2.30409508       24      -2.00000000      -2.00000000      -0.01352106       0.03894801      -0.00556508
O        2.93598600       5.88708550       1.65175084       32      -2.00000000      -2.00000000      -0.02348789       0.02354834       0.00096873
O        2.93598600       5.88708550       6.52708516       32      -2.00000000      -2.00000000      -0.02348789       0.02354834      -0.00096873
O        0.00000000       0.00000000       6.52708516       32      -2.00000000      -2.00000000      -0.02348789       0.02354834      -0.00096873
O       -0.00000000       0.00000000       1.65175084       32      -2.00000000      -2.00000000      -0.02348789       0.02354834       0.00096873
O        2.93598600       0.00000000       1.87160782       36      -2.00000000      -2.00000000      -0.02348789       0.02354834       0.00119428
O        2.93598600       0.00000000       6.30722818       36      -2.00000000      -2.00000000      -0.02348789       0.02354834      -0.00119428
O        0.00000000       5.88708550       6.30722818       36      -2.00000000      -2.00000000      -0.02348789       0.02354834      -0.00119428
O        0.00000000       5.88708550       1.87160782       36      -2.00000000      -2.00000000      -0.02348789       0.02354834       0.00119428
40
Lattice="5.8694879520979635 0.0 0.0 -0.004805492796361767 11.765903534795443 0.0 -6.45121594462176e-05 -3.0686389238694876e-07 8.171529611935108" Properties=species:S:1:pos:R:3:spacegroup_kinds:I:1:field_charges:R:1:initial_charges:R:1:forces:R:3 spacegroup="P b a m" unit_cell=conventional occupancy="_JSON {\"0\": {\"Pb\": 1.0}, \"1\": {\"Pb\": 1.0}, \"2\": {\"Pb\": 1.0}, \"3\": {\"Pb\": 1.0}, \"4\": {\"Pb\": 1.0}, \"5\": {\"Pb\": 1.0}, \"6\": {\"Pb\": 1.0}, \"7\": {\"Pb\": 1.0}, \"8\": {\"Zr\": 1.0}, \"9\": {\"Zr\": 1.0}, \"10\": {\"Zr\": 1.0}, \"11\": {\"Zr\": 1.0}, \"12\": {\"Zr\": 1.0}, \"13\": {\"Zr\": 1.0}, \"14\": {\"Zr\": 1.0}, \"15\": {\"Zr\": 1.0}, \"16\": {\"O\": 1.0}, \"17\": {\"O\": 1.0}, \"18\": {\"O\": 1.0}, \"19\": {\"O\": 1.0}, \"20\": {\"O\": 1.0}, \"21\": {\"O\": 1.0}, \"22\": {\"O\": 1.0}, \"23\": {\"O\": 1.0}, \"24\": {\"O\": 1.0}, \"25\": {\"O\": 1.0}, \"26\": {\"O\": 1.0}, \"27\": {\"O\": 1.0}, \"28\": {\"O\": 1.0}, \"29\": {\"O\": 1.0}, \"30\": {\"O\": 1.0}, \"31\": {\"O\": 1.0}, \"32\": {\"O\": 1.0}, \"33\": {\"O\": 1.0}, \"34\": {\"O\": 1.0}, \"35\": {\"O\": 1.0}, \"36\": {\"O\": 1.0}, \"37\": {\"O\": 1.0}, \"38\": {\"O\": 1.0}, \"39\": {\"O\": 1.0}}" neb_image=1 energy=-39205.78203317735 polarization_c_per_m2="_JSON [0.020282432830434738, -0.0072980585586686665, 8.63318389260343e-05]" pbc="T T T"
Pb       1.19184778       1.41315947       0.00064589        0       2.00000000       2.00000000       0.00415133      -0.00842194      -0.00008696
Pb       4.70480587      10.27838914      -0.00054626        0       2.00000000       2.00000000       0.00276510      -0.00779098       0.00001810
Pb       1.76974486       7.30660895      -0.00052489        0       2.00000000       2.00000000       0.00246161      -0.00612124       0.00001950
Pb       4.11709513       4.39858909       0.00070578        0       2.00000000       2.00000000       0.00236044      -0.00708235      -0.00009546
Pb       1.22253737       1.49254507       4.08604828        4       2.00000000       2.00000000      -0.00093279      -0.00415628      -0.00006835
Pb       4.63374154      10.23392699       4.08563250        4       2.00000000       2.00000000      -0.00095173      -0.00443162      -0.00001240
Pb       1.72859062       7.36596221       4.08563055        4       2.00000000       2.00000000       0.00525781      -0.00623240      -0.00001861
Pb       4.18557946       4.34259282       4.08602457        4       2.00000000       2.00000000       0.00550375      -0.00627940      -0.00005241
Zr       4.35575616       1.45169758       2.03688649        8       4.00000000       4.00000000       0.00040716      -0.00239787      -0.00077261
Zr       1.51431414      10.29147775       6.12760662        8       4.00000000       4.00000000       0.00073508      -0.00255824      -0.00079019
Zr       1.51423488      10.29133981       2.04384401        8       4.00000000       4.00000000       0.00074783      -0.00254252       0.00078355
Zr       4.35581133       1.45184371       6.13480141        8       4.00000000       4.00000000       0.00040314      -0.00241194       0.00073963
Zr       4.45929896       7.33197511       6.13417819        8       4.00000000       4.00000000       0.00272472      -0.00297583       0.00064170
Zr       1.42808558       4.40710114       2.04329267        8       4.00000000       4.00000000       0.00222958      -0.00285299       0.00062787
Zr       1.42815407       4.40697197       6.12838273        8       4.00000000       4.00000000       0.00222476      -0.00284905      -0.00065467
Zr       4.45922029       7.33211512       2.03726151        8       4.00000000       4.00000000       0.00273650      -0.00298436      -0.00064507
O        4.53353728       1.87321559       0.00003199       16      -2.00000000      -2.00000000      -0.00449863       0.00386053      -0.00000287
O        1.29450200       9.93172712      -0.00003154       16      -2.00000000      -2.00000000      -0.00352216       0.00461104       0.00000498
O        4.25041976       7.74402469      -0.00003433       16      -2.00000000      -2.00000000       0.00093982       0.00124197       0.00000482
O        1.62330570       4.03705192       0.00002779       16      -2.00000000      -2.00000000       0.00110013       0.00206351       0.00000002
O        4.68352083       1.11455783       4.08574647       20      -2.00000000      -2.00000000      -0.00361663       0.00214529       0.00000400
O        1.14931574      10.66898376       4.08576634       20      -2.00000000      -2.00000000      -0.00331298       0.00166097       0.00000409
O        4.10829190       7.00358469       4.08576524       20      -2.00000000      -2.00000000       0.00166114       0.00350960       0.00000354
O        1.76972241       4.78876657       4.08574183       20      -2.00000000      -2.00000000       0.00127854       0.00229496       0.00000586
O        3.13277296       3.09533300       2.29781033       24      -2.00000000      -2.00000000       0.00097066       0.00279691      -0.00078793
O        2.74569490       8.69548095       5.86940203       24      -2.00000000      -2.00000000       0.00191143       0.00250738      -0.00000260
O        2.74643440       8.69618732       2.30242520       24      -2.00000000      -2.00000000       0.00189343       0.00248186       0.00001665
O        3.13178770       3.09443153       5.87314630       24      -2.00000000      -2.00000000       0.00110644       0.00291089       0.00088277
O        5.66003192       8.98183621       5.88294304       24      -2.00000000      -2.00000000      -0.00251025       0.00369190       0.00291451
O        0.17696767       2.81572532       2.31224261       24      -2.00000000      -2.00000000      -0.00364196       0.00333516       0.00230084
O        0.17599159       2.81663936       5.85880079       24      -2.00000000      -2.00000000      -0.00350575       0.00320588      -0.00222371
O        5.66077323       8.98113404       2.28894113       24      -2.00000000      -2.00000000      -0.00252983       0.00372207      -0.00290909
O        2.92565685       5.90285365       1.65380786       32      -2.00000000      -2.00000000      -0.00128186       0.00420761       0.00080001
O        2.92634988       5.90227787       6.51769769       32      -2.00000000      -2.00000000      -0.00133426       0.00424746      -0.00077115
O       -0.00702811       0.01308066       6.52015674       32      -2.00000000      -2.00000000      -0.00161860       0.00277456      -0.00022979
O       -0.00773921       0.01248318       1.65127781       32      -2.00000000      -2.00000000      -0.00153555       0.00284608       0.00027487
O        2.89998574       0.02681094       1.86858302       36      -2.00000000      -2.00000000      -0.00736757       0.00564519      -0.00024872
O        2.90107320       0.02578335       6.30293202       36      -2.00000000      -2.00000000      -0.00747365       0.00573734       0.00028020
O        0.00708200       5.88451956       6.30118322       36      -2.00000000      -2.00000000       0.00198563       0.00024926      -0.00007115
O        0.00598372       5.88347367       1.87024018       36      -2.00000000      -2.00000000       0.00207815       0.00034157       0.00011624
40
Lattice="5.8710717368374565 0.0 0.0 -0.009041646426380409 11.765223421352761 0.0 0.0029014557053102575 2.755613708221818e-05 8.172889741856178" Properties=species:S:1:pos:R:3:spacegroup_kinds:I:1:field_charges:R:1:initial_charges:R:1:forces:R:3 spacegroup="P b a m" unit_cell=conventional occupancy="_JSON {\"0\": {\"Pb\": 1.0}, \"1\": {\"Pb\": 1.0}, \"2\": {\"Pb\": 1.0}, \"3\": {\"Pb\": 1.0}, \"4\": {\"Pb\": 1.0}, \"5\": {\"Pb\": 1.0}, \"6\": {\"Pb\": 1.0}, \"7\": {\"Pb\": 1.0}, \"8\": {\"Zr\": 1.0}, \"9\": {\"Zr\": 1.0}, \"10\": {\"Zr\": 1.0}, \"11\": {\"Zr\": 1.0}, \"12\": {\"Zr\": 1.0}, \"13\": {\"Zr\": 1.0}, \"14\": {\"Zr\": 1.0}, \"15\": {\"Zr\": 1.0}, \"16\": {\"O\": 1.0}, \"17\": {\"O\": 1.0}, \"18\": {\"O\": 1.0}, \"19\": {\"O\": 1.0}, \"20\": {\"O\": 1.0}, \"21\": {\"O\": 1.0}, \"22\": {\"O\": 1.0}, \"23\": {\"O\": 1.0}, \"24\": {\"O\": 1.0}, \"25\": {\"O\": 1.0}, \"26\": {\"O\": 1.0}, \"27\": {\"O\": 1.0}, \"28\": {\"O\": 1.0}, \"29\": {\"O\": 1.0}, \"30\": {\"O\": 1.0}, \"31\": {\"O\": 1.0}, \"32\": {\"O\": 1.0}, \"33\": {\"O\": 1.0}, \"34\": {\"O\": 1.0}, \"35\": {\"O\": 1.0}, \"36\": {\"O\": 1.0}, \"37\": {\"O\": 1.0}, \"38\": {\"O\": 1.0}, \"39\": {\"O\": 1.0}}" neb_image=2 energy=-39205.78144833041 polarization_c_per_m2="_JSON [0.02305713089443107, -0.026665239021925802, -0.008529349016843032]" pbc="T T T"
Pb       1.19707550       1.39313041      -0.03051562        0       2.00000000       2.00000000       0.00125117       0.00119279       0.00684599
Pb       4.70383569      10.25767430       0.01853964        0       2.00000000       2.00000000      -0.00068384       0.00521019       0.00248201
Pb       1.77318431       7.29572589       0.01811653        0       2.00000000       2.00000000      -0.00225786       0.00172838       0.00161903
Pb       4.11733074       4.38214143      -0.03344643        0       2.00000000       2.00000000       0.00019788       0.00469497       0.00665274
Pb       1.21269410       1.48349602       4.06907595        4       2.00000000       2.00000000       0.00316195       0.00328817       0.00737049
Pb       4.62515334      10.22413488       4.08875061        4       2.00000000       2.00000000       0.00144189       0.00274820       0.00268575
Pb       1.73904518       7.35232266       4.08798723        4       2.00000000       2.00000000      -0.00290769       0.00268488       0.00384303
Pb       4.19520069       4.32693543       4.07188088        4       2.00000000       2.00000000      -0.00073567       0.00400900       0.00454239
Zr       4.35526957       1.44969174       2.03084459        8       4.00000000       4.00000000       0.00104099       0.00108977       0.00173142
Zr       1.50789508      10.28288934       6.12748292        8       4.00000000       4.00000000       0.00098480       0.00125771       0.00105177
Zr       1.51141905      10.28902090       2.04687956        8       4.00000000       4.00000000       0.00029229       0.00028198       0.00042486
Zr       4.35360501       1.44353510       6.13302788        8       4.00000000       4.00000000       0.00113962       0.00185167       0.00124166
Zr       4.46331932       7.32890104       6.13737725        8       4.00000000       4.00000000      -0.00098133       0.00139590       0.00054233
Zr       1.43310976       4.40070044       2.04104702        8       4.00000000       4.00000000      -0.00050326       0.00034661       0.00088389
Zr       1.43092999       4.40504917       6.12400732        8       4.00000000       4.00000000      -0.00053270       0.00085565       0.00147656
Zr       4.46670791       7.32362524       2.03774178        8       4.00000000       4.00000000      -0.00150866       0.00126010       0.00073991
O        4.51881009       1.87484048      -0.00132311       16      -2.00000000      -2.00000000       0.00358502       0.00123678       0.00010121
O        1.28333630       9.94106005       0.00159096       16      -2.00000000      -2.00000000       0.00183694      -0.00304276      -0.00045890
O        4.25870159       7.74364908       0.00165384       16      -2.00000000      -2.00000000      -0.00179996       0.00044434      -0.00026690
O        1.63178033       4.04231560      -0.00081965       16      -2.00000000      -2.00000000      -0.00271511      -0.00251978      -0.00020747
O        4.67615894       1.11700877       4.08751037       20      -2.00000000      -2.00000000       0.00196345      -0.00382773      -0.00048013
O        1.14056282      10.66499065       4.08693499       20      -2.00000000      -2.00000000       0.00154067       0.00176502      -0.00060679
O        4.11749881       7.01657164       4.08689317       20      -2.00000000      -2.00000000      -0.00253033      -0.00450992      -0.00047586
O        1.77409311       4.79242281       4.08789072       20      -2.00000000      -2.00000000      -0.00046038       0.00078357      -0.00061358
O        3.10904323       3.07507288       2.31461674       24      -2.00000000      -2.00000000       0.00439422       0.00303057      -0.00274752
O        2.76006171       8.71107768       5.87229612       24      -2.00000000      -2.00000000       0.00077185       0.00009613      -0.00371057
O        2.73531852       8.68674723       2.29361035       24      -2.00000000      -2.00000000      -0.00187979      -0.00186458      -0.00008100
O        3.15647109       3.11674564       5.88769973       24      -2.00000000      -2.00000000      -0.00468517      -0.00397083      -0.00438080
O        5.66426238       8.97929027       5.88810537       24      -2.00000000      -2.00000000       0.00305149      -0.00259408      -0.00450873
O        0.14122148       2.85078575       2.32964743       24      -2.00000000      -2.00000000       0.00661368      -0.00667922      -0.00129210
O        0.18840583       2.80676619       5.86772392       24      -2.00000000      -2.00000000      -0.00279803       0.00227029      -0.00551265
O        5.63925875       9.00406469       2.27498728       24      -2.00000000      -2.00000000       0.00054423      -0.00166247       0.00081555
O        2.94712779       5.89331975       1.66049898       32      -2.00000000      -2.00000000      -0.00163373      -0.00076721      -0.00434518
O        2.92027153       5.91564890       6.51687503       32      -2.00000000      -2.00000000      -0.00101764      -0.00092167       0.00014425
O       -0.02167201       0.00887180       6.52185653       32      -2.00000000      -2.00000000       0.00245157       0.00018101      -0.00011942
O        0.00974185       0.03597661       1.65978248       32      -2.00000000      -2.00000000      -0.00324997      -0.00514995      -0.00540889
O        2.91214886       0.01229067       1.87345941       36      -2.00000000      -2.00000000      -0.00071885       0.00139094      -0.00552649
O        2.86651658       0.05486607       6.30397942       36      -2.00000000      -2.00000000       0.00474420      -0.00276971       0.00018878
O        0.00194280       5.87399213       6.30436876       36      -2.00000000      -2.00000000      -0.00227451      -0.00060399      -0.00102975
O        0.04612730       5.91711271       1.87759958       36      -2.00000000      -2.00000000      -0.00513345      -0.00421073      -0.00361087
40
Lattice="5.8755601908058805 0.0 0.0 -0.010115470756683051 11.762935904183259 0.0 0.004995125031256669 0.0006425315530353106 8.17902047876846" Properties=species:S:1:pos:R:3:spacegroup_kinds:I:1:field_charges:R:1:initial_charges:R:1:forces:R:3 spacegroup="P b a m" unit_cell=conventional occupancy="_JSON {\"0\": {\"Pb\": 1.0}, \"1\": {\"Pb\": 1.0}, \"2\": {\"Pb\": 1.0}, \"3\": {\"Pb\": 1.0}, \"4\": {\"Pb\": 1.0}, \"5\": {\"Pb\": 1.0}, \"6\": {\"Pb\": 1.0}, \"7\": {\"Pb\": 1.0}, \"8\": {\"Zr\": 1.0}, \"9\": {\"Zr\": 1.0}, \"10\": {\"Zr\": 1.0}, \"11\": {\"Zr\": 1.0}, \"12\": {\"Zr\": 1.0}, \"13\": {\"Zr\": 1.0}, \"14\": {\"Zr\": 1.0}, \"15\": {\"Zr\": 1.0}, \"16\": {\"O\": 1.0}, \"17\": {\"O\": 1.0}, \"18\": {\"O\": 1.0}, \"19\": {\"O\": 1.0}, \"20\": {\"O\": 1.0}, \"21\": {\"O\": 1.0}, \"22\": {\"O\": 1.0}, \"23\": {\"O\": 1.0}, \"24\": {\"O\": 1.0}, \"25\": {\"O\": 1.0}, \"26\": {\"O\": 1.0}, \"27\": {\"O\": 1.0}, \"28\": {\"O\": 1.0}, \"29\": {\"O\": 1.0}, \"30\": {\"O\": 1.0}, \"31\": {\"O\": 1.0}, \"32\": {\"O\": 1.0}, \"33\": {\"O\": 1.0}, \"34\": {\"O\": 1.0}, \"35\": {\"O\": 1.0}, \"36\": {\"O\": 1.0}, \"37\": {\"O\": 1.0}, \"38\": {\"O\": 1.0}, \"39\": {\"O\": 1.0}}" neb_image=3 energy=-39205.77000649139 polarization_c_per_m2="_JSON [0.02236516983460257, -0.04674490444661071, -0.03478939386381023]" pbc="T T T"
Pb       1.19226443       1.38640802      -0.06253252        0       2.00000000       2.00000000       0.00362567       0.00020820       0.02253139
Pb       4.70971994      10.22974341       0.00571867        0       2.00000000       2.00000000      -0.00055118       0.01924445       0.01998451
Pb       1.78504606       7.28725835       0.00960397        0       2.00000000       2.00000000      -0.00824784       0.00490443       0.01316726
Pb       4.11913315       4.36026626      -0.06477041        0       2.00000000       2.00000000      -0.00134257       0.01935126       0.02104325
Pb       1.19890811       1.46847800       4.03687790        4       2.00000000       2.00000000       0.00862530       0.01722821       0.03319209
Pb       4.62156311      10.21041599       4.07873110        4       2.00000000       2.00000000       0.00375886       0.01265172       0.01205737
Pb       1.75370491       7.33795277       4.07241290        4       2.00000000       2.00000000      -0.01053069       0.01265376       0.02020961
Pb       4.20226118       4.30647047       4.05331271        4       2.00000000       2.00000000      -0.00210186       0.01635708       0.01417439
Zr       4.35409854       1.44417174       2.02399269        8       4.00000000       4.00000000       0.00345734       0.00423590       0.00569981
Zr       1.50503473      10.27535852       6.12699312        8       4.00000000       4.00000000       0.00169801       0.00335839       0.00430069
Zr       1.51071680      10.28562292       2.04631262        8       4.00000000       4.00000000       0.00146792       0.00199978       0.00314177
Zr       4.35316612       1.43492275       6.13186141        8       4.00000000       4.00000000       0.00263076       0.00570542       0.00467991
Zr       4.47229370       7.32139807       6.13910763        8       4.00000000       4.00000000      -0.00348169       0.00603416       0.00308214
Zr       1.43667726       4.39867846       2.03833810        8       4.00000000       4.00000000      -0.00116554       0.00043493       0.00315798
Zr       1.43576370       4.40064375       6.12158521        8       4.00000000       4.00000000      -0.00119644       0.00366888       0.00465208
Zr       4.47707515       7.31662799       2.03583423        8       4.00000000       4.00000000      -0.00434195       0.00377453       0.00338908
O        4.50572481       1.86852366      -0.00174525       16      -2.00000000      -2.00000000       0.01372354       0.00626557      -0.00038016
O        1.27448645       9.95375480       0.00380877       16      -2.00000000      -2.00000000       0.00741804      -0.01254401      -0.00171698
O        4.27002467       7.74005308       0.00292782       16      -2.00000000      -2.00000000      -0.00539693       0.00336481      -0.00075120
O        1.64505914       4.05337442       0.00021619       16      -2.00000000      -2.00000000      -0.01093166      -0.01135242      -0.00154817
O        4.67121204       1.13378011       4.09283291       20      -2.00000000      -2.00000000       0.00770518      -0.02115404      -0.00210899
O        1.13407752      10.65317579       4.09291557       20      -2.00000000      -2.00000000       0.00310999       0.00724094      -0.00258274
O        4.13268719       7.03865222       4.09223757       20      -2.00000000      -2.00000000      -0.01011788      -0.02050489      -0.00205432
O        1.77826287       4.78942363       4.09385818       20      -2.00000000      -2.00000000       0.00067761       0.00585440      -0.00241350
O        3.08923657       3.05856169       2.33064725       24      -2.00000000      -2.00000000       0.01021429       0.00559053      -0.00599882
O        2.75668899       8.70683819       5.89664504       24      -2.00000000      -2.00000000       0.00314615       0.00103701      -0.01784181
O        2.74453913       8.69237398       2.29409333       24      -2.00000000      -2.00000000      -0.01113526      -0.01150863      -0.00088451
O        3.18044405       3.13345219       5.91161184       24      -2.00000000      -2.00000000      -0.01111675      -0.00976283      -0.01585284
O        5.65235689       8.99258226       5.91591570       24      -2.00000000      -2.00000000       0.01141628      -0.01009313      -0.01889489
O        0.10869235       2.88384887       2.33927428       24      -2.00000000      -2.00000000       0.01706049      -0.01773261       0.00188580
O        0.20110341       2.79801029       5.89626225       24      -2.00000000      -2.00000000      -0.00399282       0.00321546      -0.02668733
O        5.63927539       9.01184942       2.27160228       24      -2.00000000      -2.00000000      -0.00315292      -0.00110960      -0.00019208
O        2.95885513       5.89424789       1.68205212       32      -2.00000000      -2.00000000       0.00311306      -0.01025358      -0.02299830
O        2.93077257       5.91731633       6.52163080       32      -2.00000000      -2.00000000      -0.00474933      -0.00226091       0.00251648
O       -0.02922721       0.01049963       6.52702843       32      -2.00000000      -2.00000000       0.00652583      -0.00043723       0.00099060
O        0.02783061       0.06244891       1.68739989       32      -2.00000000      -2.00000000      -0.01111379      -0.01843928      -0.02759459
O        2.92014941       0.00390039       1.90116212       36      -2.00000000      -2.00000000       0.00225684      -0.00029953      -0.02395503
O        2.85039908       0.06588896       6.30802421       36      -2.00000000      -2.00000000       0.01169433      -0.00572590      -0.00127418
O        0.01600335       5.87847874       6.31374466       36      -2.00000000      -2.00000000      -0.01007631      -0.00451182      -0.00351575
O        0.07184563       5.93767340       1.89680205       36      -2.00000000      -2.00000000      -0.00858208      -0.00668943      -0.01461006
40