40
Lattice="5.871972 0.0 0.0 0.0 11.774171 0.0 0.0 0.0 8.178836" Properties=species:S:1:pos:R:3:spacegroup_kinds:I:1:field_charges:R:1:initial_charges:R:1:forces:R:3 spacegroup="P b a m" unit_cell=conventional occupancy="_JSON {\"0\": {\"Pb\": 1.0}, \"1\": {\"Pb\": 1.0}, \"2\": {\"Pb\": 1.0}, \"3\": {\"Pb\": 1.0}, \"4\": {\"Pb\": 1.0}, \"5\": {\"Pb\": 1.0}, \"6\": {\"Pb\": 1.0}, \"7\": {\"Pb\": 1.0}, \"8\": {\"Zr\": 1.0}, \"9\": {\"Zr\": 1.0}, \"10\": {\"Zr\": 1.0}, \"11\": {\"Zr\": 1.0}, \"12\": {\"Zr\": 1.0}, \"13\": {\"Zr\": 1.0}, \"14\": {\"Zr\": 1.0}, \"15\": {\"Zr\": 1.0}, \"16\": {\"O\": 1.0}, \"17\": {\"O\": 1.0}, \"18\": {\"O\": 1.0}, \"19\": {\"O\": 1.0}, \"20\": {\"O\": 1.0}, \"21\": {\"O\": 1.0}, \"22\": {\"O\": 1.0}, \"23\": {\"O\": 1.0}, \"24\": {\"O\": 1.0}, \"25\": {\"O\": 1.0}, \"26\": {\"O\": 1.0}, \"27\": {\"O\": 1.0}, \"28\": {\"O\": 1.0}, \"29\": {\"O\": 1.0}, \"30\": {\"O\": 1.0}, \"31\": {\"O\": 1.0}, \"32\": {\"O\": 1.0}, \"33\": {\"O\": 1.0}, \"34\": {\"O\": 1.0}, \"35\": {\"O\": 1.0}, \"36\": {\"O\": 1.0}, \"37\": {\"O\": 1.0}, \"38\": {\"O\": 1.0}, \"39\": {\"O\": 1.0}}" neb_image=0 energy=-39205.764739708866 polarization_c_per_m2="_JSON [-0.0012611573750599988, 0.0349032942069816, -1.3526432333244794e-15]" pbc="T T T"
Pb       1.17373646       1.45287285      -0.00000000        0       2.00000000       2.00000000       0.01811033      -0.02203254      -0.00000000
Pb       4.69823554      10.32129815      -0.00000000        0       2.00000000       2.00000000       0.02886545      -0.02506414      -0.00000000
Pb       1.76224954       7.33995835      -0.00000000        0       2.00000000       2.00000000       0.02886545      -0.02203254      -0.00000000
Pb       4.10972246       4.43421265      -0.00000000        0       2.00000000       2.00000000       0.01811033      -0.02506414      -0.00000000
Pb       1.22777814       1.51267559       4.08941800        4       2.00000000       2.00000000       0.01833476      -0.01928032       0.00000000
Pb       4.64419386      10.26149541       4.08941800        4       2.00000000       2.00000000       0.02864101      -0.02781637       0.00000000
Pb       1.70820786       7.39976109       4.08941800        4       2.00000000       2.00000000       0.02864101      -0.01928032       0.00000000
Pb       4.16376414       4.37440991       4.08941800        4       2.00000000       2.00000000       0.01833476      -0.02781637       0.00000000
Zr       4.35630128       1.46381254       2.04209901        8       4.00000000       4.00000000       0.04074979      -0.05115421       0.00128299
Zr       1.51567072      10.31035846       6.13673699        8       4.00000000       4.00000000       0.05320176      -0.04303916      -0.00128299
Zr       1.51567072      10.31035846       2.04209901        8       4.00000000       4.00000000       0.05320176      -0.04303916       0.00128299
Zr       4.35630128       1.46381254       6.13673699        8       4.00000000       4.00000000       0.04074979      -0.05115421      -0.00128299
Zr       4.45165672       7.35089804       6.13673699        8       4.00000000       4.00000000       0.05320176      -0.05115421      -0.00128299
Zr       1.42031528       4.42327296       2.04209901        8       4.00000000       4.00000000       0.04074979      -0.04303916       0.00128299
Zr       1.42031528       4.42327296       6.13673699        8       4.00000000       4.00000000       0.04074979      -0.04303916      -0.00128299
Zr       4.45165672       7.35089804       2.04209901        8       4.00000000       4.00000000       0.05320176      -0.05115421       0.00128299
O        4.55672239       1.85661981      -0.00000000       16      -2.00000000      -2.00000000      -0.01967453       0.01834648       0.00000000
O        1.31524961       9.91755119      -0.00000000       16      -2.00000000      -2.00000000      -0.02730124       0.02875020       0.00000000
O        4.25123561       7.74370531      -0.00000000       16      -2.00000000      -2.00000000      -0.02730124       0.01834648       0.00000000
O        1.62073639       4.03046569      -0.00000000       16      -2.00000000      -2.00000000      -0.01967453       0.02875020       0.00000000
O        4.70256932       1.10550087       4.08941800       20      -2.00000000      -2.00000000      -0.01760133       0.03098644      -0.00000000
O        1.16940268      10.66867013       4.08941800       20      -2.00000000      -2.00000000      -0.02937445       0.01611025      -0.00000000
O        4.10538868       6.99258637       4.08941800       20      -2.00000000      -2.00000000      -0.02937445       0.03098644      -0.00000000
O        1.76658332       4.78158463       4.08941800       20      -2.00000000      -2.00000000      -0.01760133       0.01611025      -0.00000000
O        3.12999853       3.08379167       2.30409508       24      -2.00000000      -2.00000000      -0.03345472       0.03894801      -0.00556508
O        2.74197347       8.69037933       5.87474092       24      -2.00000000      -2.00000000      -0.01352106       0.00814867       0.00556508
O        2.74197347       8.69037933       2.30409508       24      -2.00000000      -2.00000000      -0.01352106       0.00814867      -0.00556508
O        3.12999853       3.08379167       5.87474092       24      -2.00000000      -2.00000000      -0.03345472       0.03894801       0.00556508
O        5.67795947       8.97087717       5.87474092       24      -2.00000000      -2.00000000      -0.01352106       0.03894801       0.00556508
O        0.19401253       2.80329383       2.30409508       24      -2.00000000      -2.00000000      -0.03345472       0.00814867      -0.00556508
O        0.19401253       2.80329383       5.87474092       24      -2.00000000      -2.00000000      -0.03345472       0.00814867       0.00556508
O        5.67795947       8.97087717       2.30409508       24      -2.00000000      -2.00000000      -0.01352106       0.03894801      -0.00556508
O        2.93598600       5.88708550       1.65175084       32      -2.00000000      -2.00000000      -0.02348789       0.02354834       0.00096873
O        2.93598600       5.88708550       6.52708516       32      -2.00000000      -2.00000000      -0.02348789       0.02354834      -0.00096873
O        0.00000000       0.00000000       6.52708516       32      -2.00000000      -2.00000000      -0.02348789       0.02354834      -0.00096873
O       -0.00000000       0.00000000       1.65175084       32      -2.00000000      -2.00000000      -0.02348789       0.02354834       0.00096873
O        2.93598600       0.00000000       1.87160782       36      -2.00000000      -2.00000000      -0.02348789       0.02354834       0.00119428
O        2.93598600       0.00000000       6.30722818       36      -2.00000000      -2.00000000      -0.02348789       0.02354834      -0.00119428
O        0.00000000       5.88708550       6.30722818       36      -2.00000000      -2.00000000      -0.02348789       0.02354834      -0.00119428
O        0.00000000       5.88708550       1.87160782       36      -2.00000000      -2.00000000      -0.02348789       0.02354834       0.00119428
40
Lattice="5.869492898655697 0.0 0.0 -0.0047065732620941315 11.76589056421297 0.0 -5.591720375785059e-06 -1.42196069900828e-07 8.17154635169971" Properties=species:S:1:pos:R:3:spacegroup_kinds:I:1:field_charges:R:1:initial_charges:R:1:forces:R:3 spacegroup="P b a m" unit_cell=conventional occupancy="_JSON {\"0\": {\"Pb\": 1.0}, \"1\": {\"Pb\": 1.0}, \"2\": {\"Pb\": 1.0}, \"3\": {\"Pb\": 1.0}, \"4\": {\"Pb\": 1.0}, \"5\": {\"Pb\": 1.0}, \"6\": {\"Pb\": 1.0}, \"7\": {\"Pb\": 1.0}, \"8\": {\"Zr\": 1.0}, \"9\": {\"Zr\": 1.0}, \"10\": {\"Zr\": 1.0}, \"11\": {\"Zr\": 1.0}, \"12\": {\"Zr\": 1.0}, \"13\": {\"Zr\": 1.0}, \"14\": {\"Zr\": 1.0}, \"15\": {\"Zr\": 1.0}, \"16\": {\"O\": 1.0}, \"17\": {\"O\": 1.0}, \"18\": {\"O\": 1.0}, \"19\": {\"O\": 1.0}, \"20\": {\"O\": 1.0}, \"21\": {\"O\": 1.0}, \"22\": {\"O\": 1.0}, \"23\": {\"O\": 1.0}, \"24\": {\"O\": 1.0}, \"25\": {\"O\": 1.0}, \"26\": {\"O\": 1.0}, \"27\": {\"O\": 1.0}, \"28\": {\"O\": 1.0}, \"29\": {\"O\": 1.0}, \"30\": {\"O\": 1.0}, \"31\": {\"O\": 1.0}, \"32\": {\"O\": 1.0}, \"33\": {\"O\": 1.0}, \"34\": {\"O\": 1.0}, \"35\": {\"O\": 1.0}, \"36\": {\"O\": 1.0}, \"37\": {\"O\": 1.0}, \"38\": {\"O\": 1.0}, \"39\": {\"O\": 1.0}}" neb_image=1 energy=-39205.781982637505 polarization_c_per_m2="_JSON [0.02016763123819643, -0.006942925386213852, 6.285666242564552e-06]" pbc="T T T"
Pb       1.19168276       1.41351245       0.00005756        0       2.00000000       2.00000000       0.00429774      -0.00866863      -0.00000671
Pb       4.70486788      10.27860842      -0.00005087        0       2.00000000       2.00000000       0.00287491      -0.00801215       0.00000225
Pb       1.76980365       7.30691916      -0.00004935        0       2.00000000       2.00000000       0.00253701      -0.00630656       0.00000263
Pb       4.11710653       4.39898289       0.00006337        0       2.00000000       2.00000000       0.00245995      -0.00726803      -0.00000765
Pb       1.22264698       1.49274028       4.08579780        4       2.00000000       2.00000000      -0.00091054      -0.00427106      -0.00000522
Pb       4.63394242      10.23416582       4.08575981        4       2.00000000       2.00000000      -0.00095054      -0.00455162      -0.00000025
Pb       1.72842448       7.36614641       4.08575904        4       2.00000000       2.00000000       0.00540484      -0.00642444      -0.00000016
Pb       4.18538046       4.34274571       4.08579583        4       2.00000000       2.00000000       0.00568012      -0.00646404      -0.00000405
Zr       4.35584942       1.45181836       2.03684036        8       4.00000000       4.00000000       0.00044268      -0.00247653      -0.00078045
Zr       1.51441947      10.29147560       6.12768568        8       4.00000000       4.00000000       0.00078836      -0.00263087      -0.00080950
Zr       1.51441241      10.29146351       2.04385280        8       4.00000000       4.00000000       0.00078925      -0.00262981       0.00080921
Zr       4.35585457       1.45183136       6.13472003        8       4.00000000       4.00000000       0.00044244      -0.00247747       0.00077764
Zr       4.45928321       7.33213905       6.13419236        8       4.00000000       4.00000000       0.00281192      -0.00307073       0.00066319
Zr       1.42812067       4.40713299       2.04319897        8       4.00000000       4.00000000       0.00230025      -0.00294681       0.00065825
Zr       1.42812728       4.40712095       6.12836023        8       4.00000000       4.00000000       0.00229979      -0.00294635      -0.00066022
Zr       4.45927601       7.33215206       2.03734490        8       4.00000000       4.00000000       0.00281292      -0.00307151      -0.00066274
O        4.53374782       1.87307725       0.00000302       16      -2.00000000      -2.00000000      -0.00459933       0.00401272      -0.00000034
O        1.29469043       9.93156872      -0.00000286       16      -2.00000000      -2.00000000      -0.00362549       0.00474803       0.00000037
O        4.25040085       7.74399758      -0.00000323       16      -2.00000000      -2.00000000       0.00092399       0.00129505       0.00000055
O        1.62323291       4.03697679       0.00000269       16      -2.00000000      -2.00000000       0.00108967       0.00211522      -0.00000006
O        4.68373296       1.11445640       4.08577175       20      -2.00000000      -2.00000000      -0.00371118       0.00220550       0.00000018
O        1.14953044      10.66884210       4.08577346       20      -2.00000000      -2.00000000      -0.00341517       0.00173649       0.00000027
O        4.10822805       7.00356735       4.08577325       20      -2.00000000      -2.00000000       0.00167342       0.00359485       0.00000030
O        1.76969291       4.78880086       4.08577132       20      -2.00000000      -2.00000000       0.00130558       0.00238726       0.00000033
O        3.13217435       3.09467378       2.29823259       24      -2.00000000      -2.00000000       0.00105950       0.00293904      -0.00085401
O        2.74587407       8.69550124       5.86942909       24      -2.00000000      -2.00000000       0.00194712       0.00255629      -0.00002185
O        2.74594438       8.69556850       2.30214594       24      -2.00000000      -2.00000000       0.00194365       0.00255201       0.00002248
O        3.13208619       3.09459230       5.87326296       24      -2.00000000      -2.00000000       0.00107066       0.00294864       0.00086170
O        5.66042563       8.98151947       5.88278160       24      -2.00000000      -2.00000000      -0.00259593       0.00381924       0.00299529
O        0.17659130       2.81612392       2.31243058       24      -2.00000000      -2.00000000      -0.00367917       0.00336023       0.00235016
O        0.17650430       2.81620559       5.85907359       24      -2.00000000      -2.00000000      -0.00366819       0.00334948      -0.00234500
O        5.66049566       8.98145375       2.28879855       24      -2.00000000      -2.00000000      -0.00259918       0.00382271      -0.00299585
O        2.92624396       5.90228577       1.65374840       32      -2.00000000      -2.00000000      -0.00137820       0.00436731       0.00078939
O        2.92630858       5.90223190       6.51779725       32      -2.00000000      -2.00000000      -0.00138384       0.00437197      -0.00078830
O       -0.00711660       0.01282742       6.52020289       32      -2.00000000      -2.00000000      -0.00162422       0.00288759      -0.00024027
O       -0.00718155       0.01277329       1.65133590       32      -2.00000000      -2.00000000      -0.00161699       0.00289372       0.00024384
O        2.90095834       0.02596521       1.86865604       36      -2.00000000      -2.00000000      -0.00762907       0.00586152      -0.00028668
O        2.90105790       0.02587062       6.30289059       36      -2.00000000      -2.00000000      -0.00763849       0.00587018       0.00028788
O        0.00667232       5.88414456       6.30124357       36      -2.00000000      -2.00000000       0.00203048       0.00025647      -0.00008109
O        0.00657099       5.88404851       1.87029416       36      -2.00000000      -2.00000000       0.00203928       0.00026509       0.00008452
40
Lattice="5.870050289010978 0.0 0.0 -0.00788694399916011 11.76526643253239 0.0 0.002892920446600069 9.737024007777104e-05 8.172352372135927" Properties=species:S:1:pos:R:3:spacegroup_kinds:I:1:field_charges:R:1:initial_charges:R:1:forces:R:3 spacegroup="P b a m" unit_cell=conventional occupancy="_JSON {\"0\": {\"Pb\": 1.0}, \"1\": {\"Pb\": 1.0}, \"2\": {\"Pb\": 1.0}, \"3\": {\"Pb\": 1.0}, \"4\": {\"Pb\": 1.0}, \"5\": {\"Pb\": 1.0}, \"6\": {\"Pb\": 1.0}, \"7\": {\"Pb\": 1.0}, \"8\": {\"Zr\": 1.0}, \"9\": {\"Zr\": 1.0}, \"10\": {\"Zr\": 1.0}, \"11\": {\"Zr\": 1.0}, \"12\": {\"Zr\": 1.0}, \"13\": {\"Zr\": 1.0}, \"14\": {\"Zr\": 1.0}, \"15\": {\"Zr\": 1.0}, \"16\": {\"O\": 1.0}, \"17\": {\"O\": 1.0}, \"18\": {\"O\": 1.0}, \"19\": {\"O\": 1.0}, \"20\": {\"O\": 1.0}, \"21\": {\"O\": 1.0}, \"22\": {\"O\": 1.0}, \"23\": {\"O\": 1.0}, \"24\": {\"O\": 1.0}, \"25\": {\"O\": 1.0}, \"26\": {\"O\": 1.0}, \"27\": {\"O\": 1.0}, \"28\": {\"O\": 1.0}, \"29\": {\"O\": 1.0}, \"30\": {\"O\": 1.0}, \"31\": {\"O\": 1.0}, \"32\": {\"O\": 1.0}, \"33\": {\"O\": 1.0}, \"34\": {\"O\": 1.0}, \"35\": {\"O\": 1.0}, \"36\": {\"O\": 1.0}, \"37\": {\"O\": 1.0}, \"38\": {\"O\": 1.0}, \"39\": {\"O\": 1.0}}" neb_image=2 energy=-39205.78185576585 polarization_c_per_m2="_JSON [0.023157904364049135, -0.022266073621136695, -0.003729994415604997]" pbc="T T T"
Pb       1.19774641       1.39685895      -0.02992112        0       2.00000000       2.00000000       0.00016759       0.00041500       0.00435491
Pb       4.70314969      10.26341518       0.02555952        0       2.00000000       2.00000000      -0.00025677       0.00203310      -0.00112778
Pb       1.77079321       7.29696256       0.02506068        0       2.00000000       2.00000000      -0.00054041       0.00095206      -0.00152676
Pb       4.11801354       4.38569580      -0.03302541        0       2.00000000       2.00000000      -0.00020293       0.00154068       0.00405489
Pb       1.21654613       1.48543737       4.07275864        4       2.00000000       2.00000000       0.00118490       0.00131838       0.00320402
Pb       4.62729725      10.22618423       4.09284745        4       2.00000000       2.00000000       0.00074892       0.00074114       0.00025033
Pb       1.73707079       7.35534971       4.09327798        4       2.00000000       2.00000000      -0.00099815       0.00092205       0.00021316
Pb       4.19393827       4.33140531       4.07412962        4       2.00000000       2.00000000      -0.00011444       0.00158128       0.00223676
Zr       4.35635025       1.45144211       2.03182496        8       4.00000000       4.00000000       0.00021564       0.00028158       0.00088069
Zr       1.50942293      10.28400003       6.12865678        8       4.00000000       4.00000000       0.00057260       0.00065192       0.00020380
Zr       1.51300028      10.29021694       2.04746353        8       4.00000000       4.00000000      -0.00002812      -0.00002262      -0.00007636
Zr       4.35379566       1.44488856       6.13285701        8       4.00000000       4.00000000       0.00058065       0.00086344       0.00063988
Zr       4.46152090       7.33087478       6.13815770        8       4.00000000       4.00000000      -0.00019177       0.00023138      -0.00009422
Zr       1.43316650       4.40050525       2.04114252        8       4.00000000       4.00000000      -0.00031720       0.00039286       0.00047843
Zr       1.42982737       4.40653336       6.12450446        8       4.00000000       4.00000000      -0.00008042       0.00011977       0.00067710
Zr       4.46529386       7.32431767       2.03891310        8       4.00000000       4.00000000      -0.00069373       0.00063933      -0.00001463
O        4.52105458       1.87544423      -0.00158010       16      -2.00000000      -2.00000000       0.00207294       0.00061130       0.00016250
O        1.28669933       9.93858220       0.00148352       16      -2.00000000      -2.00000000       0.00037661      -0.00120300      -0.00026924
O        4.25626211       7.74389277       0.00176500       16      -2.00000000      -2.00000000      -0.00070519      -0.00001997      -0.00024761
O        1.62906251       4.04056178      -0.00130650       16      -2.00000000      -2.00000000      -0.00106060      -0.00088545       0.00004759
O        4.67745582       1.11597278       4.08690389       20      -2.00000000      -2.00000000       0.00065915      -0.00131085      -0.00016165
O        1.14346103      10.66751042       4.08608871       20      -2.00000000      -2.00000000       0.00066773       0.00065042      -0.00016972
O        4.11565227       7.01157691       4.08617303       20      -2.00000000      -2.00000000      -0.00114635      -0.00144557      -0.00014180
O        1.77280471       4.79161747       4.08713219       20      -2.00000000      -2.00000000       0.00015883       0.00003776      -0.00018540
O        3.11029788       3.07540298       2.31276386       24      -2.00000000      -2.00000000       0.00335652       0.00277483      -0.00207955
O        2.76726045       8.71716419       5.86518376       24      -2.00000000      -2.00000000      -0.00119768      -0.00138761      -0.00042992
O        2.73134645       8.68252703       2.29314985       24      -2.00000000      -2.00000000       0.00080722       0.00092815       0.00043125
O        3.15624780       3.11765359       5.88653107       24      -2.00000000      -2.00000000      -0.00259627      -0.00241867      -0.00176933
O        5.67314263       8.97114524       5.88076291       24      -2.00000000      -2.00000000      -0.00020848       0.00017404      -0.00106488
O        0.14566746       2.84652944       2.32736799       24      -2.00000000      -2.00000000       0.00415528      -0.00410885      -0.00081671
O        0.19096331       2.80368407       5.86671778       24      -2.00000000      -2.00000000      -0.00198388       0.00183177      -0.00262878
O        5.63751395       9.00444606       2.27465188       24      -2.00000000      -2.00000000       0.00168393      -0.00202821       0.00118838
O        2.94673803       5.89158637       1.65731769       32      -2.00000000      -2.00000000      -0.00235452       0.00119179      -0.00122087
O        2.91349519       5.91943111       6.51531963       32      -2.00000000      -2.00000000       0.00062327      -0.00118026       0.00023317
O       -0.02422725       0.00482828       6.52113021       32      -2.00000000      -2.00000000       0.00186232       0.00074949      -0.00002719
O        0.00969682       0.03322180       1.65601830       32      -2.00000000      -2.00000000      -0.00265983      -0.00306156      -0.00198948
O        2.91611433       0.00931979       1.86962320       36      -2.00000000      -2.00000000      -0.00241455       0.00261849      -0.00232911
O        2.86467791       0.05815677       6.30274868       36      -2.00000000      -2.00000000       0.00342446      -0.00257488       0.00062871
O       -0.00757647       5.86627298       6.30341764       36      -2.00000000      -2.00000000       0.00059966       0.00105580      -0.00067015
O        0.04448301       5.91573726       1.87406610       36      -2.00000000      -2.00000000      -0.00416691      -0.00366031      -0.00084443
40
Lattice="5.8725205114961065 0.0 0.0 -0.004357551452719753 11.762356884896297 0.0 0.00582079271484202 0.0002176499151612917 8.176794297221164" Properties=species:S:1:pos:R:3:spacegroup_kinds:I:1:field_charges:R:1:initial_charges:R:1:forces:R:3 spacegroup="P b a m" unit_cell=conventional occupancy="_JSON {\"0\": {\"Pb\": 1.0}, \"1\": {\"Pb\": 1.0}, \"2\": {\"Pb\": 1.0}, \"3\": {\"Pb\": 1.0}, \"4\": {\"Pb\": 1.0}, \"5\": {\"Pb\": 1.0}, \"6\": {\"Pb\": 1.0}, \"7\": {\"Pb\": 1.0}, \"8\": {\"Zr\": 1.0}, \"9\": {\"Zr\": 1.0}, \"10\": {\"Zr\": 1.0}, \"11\": {\"Zr\": 1.0}, \"12\": {\"Zr\": 1.0}, \"13\": {\"Zr\": 1.0}, \"14\": {\"Zr\": 1.0}, \"15\": {\"Zr\": 1.0}, \"16\": {\"O\": 1.0}, \"17\": {\"O\": 1.0}, \"18\": {\"O\": 1.0}, \"19\": {\"O\": 1.0}, \"20\": {\"O\": 1.0}, \"21\": {\"O\": 1.0}, \"22\": {\"O\": 1.0}, \"23\": {\"O\": 1.0}, \"24\": {\"O\": 1.0}, \"25\": {\"O\": 1.0}, \"26\": {\"O\": 1.0}, \"27\": {\"O\": 1.0}, \"28\": {\"O\": 1.0}, \"29\": {\"O\": 1.0}, \"30\": {\"O\": 1.0}, \"31\": {\"O\": 1.0}, \"32\": {\"O\": 1.0}, \"33\": {\"O\": 1.0}, \"34\": {\"O\": 1.0}, \"35\": {\"O\": 1.0}, \"36\": {\"O\": 1.0}, \"37\": {\"O\": 1.0}, \"38\": {\"O\": 1.0}, \"39\": {\"O\": 1.0}}" neb_image=3 energy=-39205.775156464675 polarization_c_per_m2="_JSON [0.021951221394502878, -0.03684206575558606, -0.019822872161862324]" pbc="T T T"
Pb       1.19785226       1.39010035      -0.06522619        0       2.00000000       2.00000000      -0.00026072       0.00121300       0.01720581
Pb       4.71059438      10.24061686       0.03179464        0       2.00000000       2.00000000      -0.00160632       0.01331724       0.00901622
Pb       1.77947040       7.28776793       0.03497984        0       2.00000000       2.00000000      -0.00335818       0.00803656       0.00263067
Pb       4.12278638       4.37290337      -0.06582054        0       2.00000000       2.00000000      -0.00104967       0.01227636       0.01260733
Pb       1.20692513       1.47438060       4.04753684        4       2.00000000       2.00000000       0.00615712       0.01210061       0.02160112
Pb       4.62622397      10.21839706       4.09154125        4       2.00000000       2.00000000       0.00418809       0.00699630       0.00614620
Pb       1.74955344       7.34422037       4.09204719        4       2.00000000       2.00000000      -0.00768654       0.00610896       0.00614588
Pb       4.19914541       4.31416769       4.05741943        4       2.00000000       2.00000000      -0.00074123       0.01160517       0.00901006
Zr       4.35686029       1.44783766       2.02510605        8       4.00000000       4.00000000       0.00203469       0.00307258       0.00438745
Zr       1.51033274      10.27560803       6.12969555        8       4.00000000       4.00000000       0.00163373       0.00242646       0.00259563
Zr       1.51719895      10.28702565       2.04900740        8       4.00000000       4.00000000       0.00077663       0.00170166       0.00128253
Zr       4.35320102       1.43702607       6.13119917        8       4.00000000       4.00000000       0.00197932       0.00373040       0.00295848
Zr       4.47023464       7.32683273       6.14167282        8       4.00000000       4.00000000      -0.00233457       0.00366003       0.00070056
Zr       1.43852638       4.39644503       2.03825133        8       4.00000000       4.00000000      -0.00052179       0.00092916       0.00160954
Zr       1.43519048       4.40406691       6.12210691        8       4.00000000       4.00000000      -0.00076721       0.00265060       0.00304274
Zr       4.47643629       7.31733712       2.03987280        8       4.00000000       4.00000000      -0.00310061       0.00266634       0.00138516
O        4.50492247       1.86963042      -0.00275734       16      -2.00000000      -2.00000000       0.01405856       0.00446764       0.00006734
O        1.28579566       9.94698489       0.00374795       16      -2.00000000      -2.00000000       0.00303612      -0.00870109      -0.00117053
O        4.26770903       7.74242591       0.00378187       16      -2.00000000      -2.00000000      -0.00283277      -0.00016130      -0.00069382
O        1.64098175       4.04688691      -0.00149228       16      -2.00000000      -2.00000000      -0.00795438      -0.00689101      -0.00061483
O        4.67496744       1.12476202       4.09049036       20      -2.00000000      -2.00000000       0.00444028      -0.01325060      -0.00113023
O        1.14210956      10.65685463       4.08986859       20      -2.00000000      -2.00000000       0.00353990       0.00372671      -0.00147872
O        4.13091031       7.02557593       4.08965849       20      -2.00000000      -2.00000000      -0.00795265      -0.00969257      -0.00111986
O        1.77524578       4.79295258       4.09094028       20      -2.00000000      -2.00000000       0.00142287       0.00223225      -0.00108898
O        3.08273787       3.04925141       2.33430796       24      -2.00000000      -2.00000000       0.00952449       0.00608499      -0.00567386
O        2.77786962       8.72146900       5.87668205       24      -2.00000000      -2.00000000      -0.00131189      -0.00279076      -0.00503780
O        2.72819969       8.67144441       2.28848482       24      -2.00000000      -2.00000000      -0.00496117      -0.00442911      -0.00265655
O        3.17847523       3.13324792       5.90133689       24      -2.00000000      -2.00000000      -0.00760785      -0.00737829      -0.00848251
O        5.67605644       8.97348957       5.89722524       24      -2.00000000      -2.00000000       0.00565392      -0.00557777      -0.01168589
O        0.10935366       2.88367349       2.33795153       24      -2.00000000      -2.00000000       0.01471832      -0.01498117       0.00218528
O        0.20595018       2.79269760       5.88906559       24      -2.00000000      -2.00000000      -0.00330600       0.00312177      -0.01771724
O        5.62767137       9.02124248       2.26443006       24      -2.00000000      -2.00000000       0.00098015      -0.00367958       0.00227603
O        2.97333732       5.87801483       1.66833899       32      -2.00000000      -2.00000000      -0.00270211      -0.00271336      -0.01006730
O        2.91999238       5.92329855       6.51804662       32      -2.00000000      -2.00000000      -0.00142530      -0.00345465       0.00193651
O       -0.03315917       0.00306542       6.52459742       32      -2.00000000      -2.00000000       0.00519039      -0.00016322       0.00038075
O        0.03470884       0.06166932       1.67482664       32      -2.00000000      -2.00000000      -0.01002753      -0.01454981      -0.01650426
O        2.93821758      -0.01351808       1.89101790       36      -2.00000000      -2.00000000      -0.00197320       0.00371989      -0.01740439
O        2.84334135       0.07516929       6.30146964       36      -2.00000000      -2.00000000       0.01045663      -0.00633622       0.00127629
O       -0.00094494       5.86294939       6.31302349       36      -2.00000000      -2.00000000      -0.00579248      -0.00220876      -0.00424076
O        0.08508439       5.94793458       1.88248120       36      -2.00000000      -2.00000000      -0.01051704      -0.00888543      -0.00368005
40