40
Lattice="5.871972 0.0 0.0 0.0 11.774171 0.0 0.0 0.0 8.178836" Properties=species:S:1:pos:R:3:spacegroup_kinds:I:1:field_charges:R:1:initial_charges:R:1:forces:R:3 spacegroup="P b a m" unit_cell=conventional occupancy="_JSON {\"0\": {\"Pb\": 1.0}, \"1\": {\"Pb\": 1.0}, \"2\": {\"Pb\": 1.0}, \"3\": {\"Pb\": 1.0}, \"4\": {\"Pb\": 1.0}, \"5\": {\"Pb\": 1.0}, \"6\": {\"Pb\": 1.0}, \"7\": {\"Pb\": 1.0}, \"8\": {\"Zr\": 1.0}, \"9\": {\"Zr\": 1.0}, \"10\": {\"Zr\": 1.0}, \"11\": {\"Zr\": 1.0}, \"12\": {\"Zr\": 1.0}, \"13\": {\"Zr\": 1.0}, \"14\": {\"Zr\": 1.0}, \"15\": {\"Zr\": 1.0}, \"16\": {\"O\": 1.0}, \"17\": {\"O\": 1.0}, \"18\": {\"O\": 1.0}, \"19\": {\"O\": 1.0}, \"20\": {\"O\": 1.0}, \"21\": {\"O\": 1.0}, \"22\": {\"O\": 1.0}, \"23\": {\"O\": 1.0}, \"24\": {\"O\": 1.0}, \"25\": {\"O\": 1.0}, \"26\": {\"O\": 1.0}, \"27\": {\"O\": 1.0}, \"28\": {\"O\": 1.0}, \"29\": {\"O\": 1.0}, \"30\": {\"O\": 1.0}, \"31\": {\"O\": 1.0}, \"32\": {\"O\": 1.0}, \"33\": {\"O\": 1.0}, \"34\": {\"O\": 1.0}, \"35\": {\"O\": 1.0}, \"36\": {\"O\": 1.0}, \"37\": {\"O\": 1.0}, \"38\": {\"O\": 1.0}, \"39\": {\"O\": 1.0}}" neb_image=0 energy=-39205.764739708866 polarization_c_per_m2="_JSON [-0.0012611573750599988, 0.0349032942069816, -1.3526432333244794e-15]" pbc="T T T"
Pb       1.17373646       1.45287285      -0.00000000        0       2.00000000       2.00000000       0.01811033      -0.02203254      -0.00000000
Pb       4.69823554      10.32129815      -0.00000000        0       2.00000000       2.00000000       0.02886545      -0.02506414      -0.00000000
Pb       1.76224954       7.33995835      -0.00000000        0       2.00000000       2.00000000       0.02886545      -0.02203254      -0.00000000
Pb       4.10972246       4.43421265      -0.00000000        0       2.00000000       2.00000000       0.01811033      -0.02506414      -0.00000000
Pb       1.22777814       1.51267559       4.08941800        4       2.00000000       2.00000000       0.01833476      -0.01928032       0.00000000
Pb       4.64419386      10.26149541       4.08941800        4       2.00000000       2.00000000       0.02864101      -0.02781637       0.00000000
Pb       1.70820786       7.39976109       4.08941800        4       2.00000000       2.00000000       0.02864101      -0.01928032       0.00000000
Pb       4.16376414       4.37440991       4.08941800        4       2.00000000       2.00000000       0.01833476      -0.02781637       0.00000000
Zr       4.35630128       1.46381254       2.04209901        8       4.00000000       4.00000000       0.04074979      -0.05115421       0.00128299
Zr       1.51567072      10.31035846       6.13673699        8       4.00000000       4.00000000       0.05320176      -0.04303916      -0.00128299
Zr       1.51567072      10.31035846       2.04209901        8       4.00000000       4.00000000       0.05320176      -0.04303916       0.00128299
Zr       4.35630128       1.46381254       6.13673699        8       4.00000000       4.00000000       0.04074979      -0.05115421      -0.00128299
Zr       4.45165672       7.35089804       6.13673699        8       4.00000000       4.00000000       0.05320176      -0.05115421      -0.00128299
Zr       1.42031528       4.42327296       2.04209901        8       4.00000000       4.00000000       0.04074979      -0.04303916       0.00128299
Zr       1.42031528       4.42327296       6.13673699        8       4.00000000       4.00000000       0.04074979      -0.04303916      -0.00128299
Zr       4.45165672       7.35089804       2.04209901        8       4.00000000       4.00000000       0.05320176      -0.05115421       0.00128299
O        4.55672239       1.85661981      -0.00000000       16      -2.00000000      -2.00000000      -0.01967453       0.01834648       0.00000000
O        1.31524961       9.91755119      -0.00000000       16      -2.00000000      -2.00000000      -0.02730124       0.02875020       0.00000000
O        4.25123561       7.74370531      -0.00000000       16      -2.00000000      -2.00000000      -0.02730124       0.01834648       0.00000000
O        1.62073639       4.03046569      -0.00000000       16      -2.00000000      -2.00000000      -0.01967453       0.02875020       0.00000000
O        4.70256932       1.10550087       4.08941800       20      -2.00000000      -2.00000000      -0.01760133       0.03098644      -0.00000000
O        1.16940268      10.66867013       4.08941800       20      -2.00000000      -2.00000000      -0.02937445       0.01611025      -0.00000000
O        4.10538868       6.99258637       4.08941800       20      -2.00000000      -2.00000000      -0.02937445       0.03098644      -0.00000000
O        1.76658332       4.78158463       4.08941800       20      -2.00000000      -2.00000000      -0.01760133       0.01611025      -0.00000000
O        3.12999853       3.08379167       2.30409508       24      -2.00000000      -2.00000000      -0.03345472       0.03894801      -0.00556508
O        2.74197347       8.69037933       5.87474092       24      -2.00000000      -2.00000000      -0.01352106       0.00814867       0.00556508
O        2.74197347       8.69037933       2.30409508       24      -2.00000000      -2.00000000      -0.01352106       0.00814867      -0.00556508
O        3.12999853       3.08379167       5.87474092       24      -2.00000000      -2.00000000      -0.03345472       0.03894801       0.00556508
O        5.67795947       8.97087717       5.87474092       24      -2.00000000      -2.00000000      -0.01352106       0.03894801       0.00556508
O        0.19401253       2.80329383       2.30409508       24      -2.00000000      -2.00000000      -0.03345472       0.00814867      -0.00556508
O        0.19401253       2.80329383       5.87474092       24      -2.00000000      -2.00000000      -0.03345472       0.00814867       0.00556508
O        5.67795947       8.97087717       2.30409508       24      -2.00000000      -2.00000000      -0.01352106       0.03894801      -0.00556508
O        2.93598600       5.88708550       1.65175084       32      -2.00000000      -2.00000000      -0.02348789       0.02354834       0.00096873
O        2.93598600       5.88708550       6.52708516       32      -2.00000000      -2.00000000      -0.02348789       0.02354834      -0.00096873
O        0.00000000       0.00000000       6.52708516       32      -2.00000000      -2.00000000      -0.02348789       0.02354834      -0.00096873
O       -0.00000000       0.00000000       1.65175084       32      -2.00000000      -2.00000000      -0.02348789       0.02354834       0.00096873
O        2.93598600       0.00000000       1.87160782       36      -2.00000000      -2.00000000      -0.02348789       0.02354834       0.00119428
O        2.93598600       0.00000000       6.30722818       36      -2.00000000      -2.00000000      -0.02348789       0.02354834      -0.00119428
O        0.00000000       5.88708550       6.30722818       36      -2.00000000      -2.00000000      -0.02348789       0.02354834      -0.00119428
O        0.00000000       5.88708550       1.87160782       36      -2.00000000      -2.00000000      -0.02348789       0.02354834       0.00119428
40
Lattice="5.869490122680647 0.0 0.0 -0.004854789736181038 11.765907400436433 0.0 -5.99156067107873e-05 -3.248639544024282e-07 8.171522716434476" Properties=species:S:1:pos:R:3:spacegroup_kinds:I:1:field_charges:R:1:initial_charges:R:1:forces:R:3 spacegroup="P b a m" unit_cell=conventional occupancy="_JSON {\"0\": {\"Pb\": 1.0}, \"1\": {\"Pb\": 1.0}, \"2\": {\"Pb\": 1.0}, \"3\": {\"Pb\": 1.0}, \"4\": {\"Pb\": 1.0}, \"5\": {\"Pb\": 1.0}, \"6\": {\"Pb\": 1.0}, \"7\": {\"Pb\": 1.0}, \"8\": {\"Zr\": 1.0}, \"9\": {\"Zr\": 1.0}, \"10\": {\"Zr\": 1.0}, \"11\": {\"Zr\": 1.0}, \"12\": {\"Zr\": 1.0}, \"13\": {\"Zr\": 1.0}, \"14\": {\"Zr\": 1.0}, \"15\": {\"Zr\": 1.0}, \"16\": {\"O\": 1.0}, \"17\": {\"O\": 1.0}, \"18\": {\"O\": 1.0}, \"19\": {\"O\": 1.0}, \"20\": {\"O\": 1.0}, \"21\": {\"O\": 1.0}, \"22\": {\"O\": 1.0}, \"23\": {\"O\": 1.0}, \"24\": {\"O\": 1.0}, \"25\": {\"O\": 1.0}, \"26\": {\"O\": 1.0}, \"27\": {\"O\": 1.0}, \"28\": {\"O\": 1.0}, \"29\": {\"O\": 1.0}, \"30\": {\"O\": 1.0}, \"31\": {\"O\": 1.0}, \"32\": {\"O\": 1.0}, \"33\": {\"O\": 1.0}, \"34\": {\"O\": 1.0}, \"35\": {\"O\": 1.0}, \"36\": {\"O\": 1.0}, \"37\": {\"O\": 1.0}, \"38\": {\"O\": 1.0}, \"39\": {\"O\": 1.0}}" neb_image=1 energy=-39205.78205923033 polarization_c_per_m2="_JSON [0.020337678392557925, -0.007497685691349369, 8.109152605918219e-05]" pbc="T T T"
Pb       1.19194113       1.41292508       0.00059874        0       2.00000000       2.00000000       0.00408284      -0.00829557      -0.00008174
Pb       4.70478933      10.27820568      -0.00050424        0       2.00000000       2.00000000       0.00270169      -0.00765848       0.00001573
Pb       1.76974374       7.30647590      -0.00048473        0       2.00000000       2.00000000       0.00240801      -0.00602517       0.00001772
Pb       4.11709897       4.39842127       0.00065384        0       2.00000000       2.00000000       0.00230709      -0.00697690      -0.00008894
Pb       1.22246276       1.49245824       4.08602535        4       2.00000000       2.00000000      -0.00093604      -0.00408875      -0.00006493
Pb       4.63363605      10.23383064       4.08563973        4       2.00000000       2.00000000      -0.00095175      -0.00436473      -0.00001193
Pb       1.72868250       7.36582758       4.08563788        4       2.00000000       2.00000000       0.00517543      -0.00612365      -0.00001764
Pb       4.18569277       4.34245569       4.08600273        4       2.00000000       2.00000000       0.00541319      -0.00616883      -0.00004914
Zr       4.35573964       1.45166215       2.03686079        8       4.00000000       4.00000000       0.00038855      -0.00235316      -0.00075912
Zr       1.51425390      10.29142733       6.12758451        8       4.00000000       4.00000000       0.00070975      -0.00251184      -0.00077780
Zr       1.51418070      10.29129972       2.04386562        8       4.00000000       4.00000000       0.00072142      -0.00249723       0.00077120
Zr       4.35579036       1.45179727       6.13480919        8       4.00000000       4.00000000       0.00038484      -0.00236610       0.00072776
Zr       4.45931747       7.33192768       6.13419134        8       4.00000000       4.00000000       0.00267584      -0.00292323       0.00063245
Zr       1.42811153       4.40704945       2.04330102        8       4.00000000       4.00000000       0.00218747      -0.00280007       0.00061869
Zr       1.42817452       4.40693026       6.12835705        8       4.00000000       4.00000000       0.00218316      -0.00279661      -0.00064372
Zr       4.45924491       7.33205702       2.03724843        8       4.00000000       4.00000000       0.00268672      -0.00293086      -0.00063549
O        4.53341499       1.87328098       0.00002966       16      -2.00000000      -2.00000000      -0.00443502       0.00378601      -0.00000277
O        1.29439176       9.93182343      -0.00002925       16      -2.00000000      -2.00000000      -0.00346052       0.00452837       0.00000464
O        4.25045612       7.74403877      -0.00003185       16      -2.00000000      -2.00000000       0.00094357       0.00121530       0.00000459
O        1.62335830       4.03709008       0.00002565       16      -2.00000000      -2.00000000       0.00110232       0.00202690       0.00000009
O        4.68342384       1.11456313       4.08574436       20      -2.00000000      -2.00000000      -0.00356369       0.00210087       0.00000376
O        1.14920653      10.66899161       4.08576259       20      -2.00000000      -2.00000000      -0.00325269       0.00162926       0.00000397
O        4.10834667       7.00367007       4.08576156       20      -2.00000000      -2.00000000       0.00165333       0.00344502       0.00000343
O        1.76975792       4.78880989       4.08573999       20      -2.00000000      -2.00000000       0.00126528       0.00224501       0.00000547
O        3.13276014       3.09535329       2.29781739       24      -2.00000000      -2.00000000       0.00096930       0.00275773      -0.00078137
O        2.74574627       8.69558057       5.86938877       24      -2.00000000      -2.00000000       0.00189647       0.00248203      -0.00001048
O        2.74642913       8.69623292       2.30240778       24      -2.00000000      -2.00000000       0.00188026       0.00245859       0.00002445
O        3.13184699       3.09451835       5.87317391       24      -2.00000000      -2.00000000       0.00109548       0.00286322       0.00087003
O        5.65996766       8.98189437       5.88300179       24      -2.00000000      -2.00000000      -0.00245913       0.00362108       0.00286058
O        0.17683030       2.81585662       2.31233830       24      -2.00000000      -2.00000000      -0.00357542       0.00327699       0.00226106
O        0.17592538       2.81670381       5.85873353       24      -2.00000000      -2.00000000      -0.00344859       0.00315626      -0.00218910
O        5.66065206       8.98124608       2.28884749       24      -2.00000000      -2.00000000      -0.00247643       0.00364802      -0.00285446
O        2.92566540       5.90291112       1.65383449       32      -2.00000000      -2.00000000      -0.00125792       0.00414059       0.00079307
O        2.92630570       5.90237893       6.51766521       32      -2.00000000      -2.00000000      -0.00130561       0.00417693      -0.00076601
O       -0.00707811       0.01312947       6.52014593       32      -2.00000000      -2.00000000      -0.00159792       0.00272356      -0.00022694
O       -0.00773620       0.01257629       1.65128758       32      -2.00000000      -2.00000000      -0.00152050       0.00279033       0.00027006
O        2.89985915       0.02689483       1.86856390       36      -2.00000000      -2.00000000      -0.00726117       0.00556259      -0.00025112
O        2.90086497       0.02594429       6.30294411       36      -2.00000000      -2.00000000      -0.00735940       0.00564782       0.00028163
O        0.00711858       5.88452765       6.30117607       36      -2.00000000      -2.00000000       0.00197252       0.00025690      -0.00007014
O        0.00610351       5.88356052       1.87024729       36      -2.00000000      -2.00000000       0.00205726       0.00034179       0.00011248
40
Lattice="5.87106585334861 0.0 0.0 -0.008845257971419839 11.765226535559393 0.0 0.002986144324405926 3.288098963097414e-05 8.17289426821045" Properties=species:S:1:pos:R:3:spacegroup_kinds:I:1:field_charges:R:1:initial_charges:R:1:forces:R:3 spacegroup="P b a m" unit_cell=conventional occupancy="_JSON {\"0\": {\"Pb\": 1.0}, \"1\": {\"Pb\": 1.0}, \"2\": {\"Pb\": 1.0}, \"3\": {\"Pb\": 1.0}, \"4\": {\"Pb\": 1.0}, \"5\": {\"Pb\": 1.0}, \"6\": {\"Pb\": 1.0}, \"7\": {\"Pb\": 1.0}, \"8\": {\"Zr\": 1.0}, \"9\": {\"Zr\": 1.0}, \"10\": {\"Zr\": 1.0}, \"11\": {\"Zr\": 1.0}, \"12\": {\"Zr\": 1.0}, \"13\": {\"Zr\": 1.0}, \"14\": {\"Zr\": 1.0}, \"15\": {\"Zr\": 1.0}, \"16\": {\"O\": 1.0}, \"17\": {\"O\": 1.0}, \"18\": {\"O\": 1.0}, \"19\": {\"O\": 1.0}, \"20\": {\"O\": 1.0}, \"21\": {\"O\": 1.0}, \"22\": {\"O\": 1.0}, \"23\": {\"O\": 1.0}, \"24\": {\"O\": 1.0}, \"25\": {\"O\": 1.0}, \"26\": {\"O\": 1.0}, \"27\": {\"O\": 1.0}, \"28\": {\"O\": 1.0}, \"29\": {\"O\": 1.0}, \"30\": {\"O\": 1.0}, \"31\": {\"O\": 1.0}, \"32\": {\"O\": 1.0}, \"33\": {\"O\": 1.0}, \"34\": {\"O\": 1.0}, \"35\": {\"O\": 1.0}, \"36\": {\"O\": 1.0}, \"37\": {\"O\": 1.0}, \"38\": {\"O\": 1.0}, \"39\": {\"O\": 1.0}}" neb_image=2 energy=-39205.78143205931 polarization_c_per_m2="_JSON [0.023077028789056958, -0.02672863832416796, -0.008435579700637024]" pbc="T T T"
Pb       1.19699514       1.39344570      -0.03106664        0       2.00000000       2.00000000       0.00115618       0.00117777       0.00699539
Pb       4.70400683      10.25803766       0.01918696        0       2.00000000       2.00000000      -0.00073434       0.00517404       0.00233854
Pb       1.77311950       7.29528824       0.01875147        0       2.00000000       2.00000000      -0.00216529       0.00190486       0.00139894
Pb       4.11746916       4.38172252      -0.03389575        0       2.00000000       2.00000000       0.00008941       0.00470592       0.00666713
Pb       1.21295700       1.48323828       4.06897208        4       2.00000000       2.00000000       0.00310432       0.00338887       0.00740927
Pb       4.62547879      10.22380437       4.08898163        4       2.00000000       2.00000000       0.00145500       0.00277197       0.00262194
Pb       1.73951267       7.35248207       4.08827046        4       2.00000000       2.00000000      -0.00297379       0.00268666       0.00372075
Pb       4.19537427       4.32717677       4.07178808        4       2.00000000       2.00000000      -0.00071634       0.00408247       0.00447579
Zr       4.35531564       1.44978546       2.03084663        8       4.00000000       4.00000000       0.00102678       0.00108055       0.00174372
Zr       1.50809590      10.28286905       6.12754542        8       4.00000000       4.00000000       0.00096583       0.00128303       0.00104674
Zr       1.51165207      10.28912188       2.04693833        8       4.00000000       4.00000000       0.00028108       0.00029058       0.00040186
Zr       4.35358336       1.44349712       6.13294212        8       4.00000000       4.00000000       0.00115201       0.00185824       0.00124403
Zr       4.46347837       7.32891631       6.13752465        8       4.00000000       4.00000000      -0.00098475       0.00137193       0.00049246
Zr       1.43324641       4.40054896       2.04102497        8       4.00000000       4.00000000      -0.00050684       0.00039882       0.00087837
Zr       1.43101789       4.40506399       6.12398225        8       4.00000000       4.00000000      -0.00052041       0.00084754       0.00145505
Zr       4.46690064       7.32350846       2.03775968        8       4.00000000       4.00000000      -0.00151952       0.00127303       0.00071735
O        4.51847624       1.87482219      -0.00136453       16      -2.00000000      -2.00000000       0.00383264       0.00126700       0.00011398
O        1.28359871       9.94104093       0.00160011       16      -2.00000000      -2.00000000       0.00176608      -0.00306506      -0.00045612
O        4.25875345       7.74366277       0.00167748       16      -2.00000000      -2.00000000      -0.00176045       0.00038472      -0.00027547
O        1.63206605       4.04236814      -0.00085519       16      -2.00000000      -2.00000000      -0.00282225      -0.00251317      -0.00019958
O        4.67625902       1.11759644       4.08752516       20      -2.00000000      -2.00000000       0.00194312      -0.00397830      -0.00047786
O        1.14082314      10.66554483       4.08692497       20      -2.00000000      -2.00000000       0.00154065       0.00168205      -0.00060410
O        4.11785239       7.01601809       4.08688710       20      -2.00000000      -2.00000000      -0.00261828      -0.00438709      -0.00047325
O        1.77412109       4.79198944       4.08789811       20      -2.00000000      -2.00000000      -0.00036522       0.00077679      -0.00060304
O        3.10936624       3.07537006       2.31439856       24      -2.00000000      -2.00000000       0.00438793       0.00300205      -0.00279153
O        2.76141712       8.71221691       5.87138616       24      -2.00000000      -2.00000000       0.00053594      -0.00011036      -0.00344726
O        2.73577300       8.68706506       2.29406280       24      -2.00000000      -2.00000000      -0.00188107      -0.00186094      -0.00016521
O        3.15738027       3.11759220       5.88820302       24      -2.00000000      -2.00000000      -0.00461900      -0.00394845      -0.00427132
O        5.66555347       8.97830166       5.88735894       24      -2.00000000      -2.00000000       0.00287842      -0.00248904      -0.00443368
O        0.14153467       2.85048473       2.32907294       24      -2.00000000      -2.00000000       0.00660805      -0.00665146      -0.00112833
O        0.18935076       2.80586765       5.86862754       24      -2.00000000      -2.00000000      -0.00276220       0.00226418      -0.00570727
O        5.63967772       9.00380995       2.27525857       24      -2.00000000      -2.00000000       0.00055043      -0.00166008       0.00082725
O        2.94688554       5.89368853       1.66062802       32      -2.00000000      -2.00000000      -0.00158191      -0.00083344      -0.00433173
O        2.91946838       5.91651068       6.51664005       32      -2.00000000      -2.00000000      -0.00095295      -0.00099205       0.00018828
O       -0.02263183       0.00805136       6.52193427       32      -2.00000000      -2.00000000       0.00251672       0.00020932      -0.00010330
O        0.00928931       0.03557203       1.65964956       32      -2.00000000      -2.00000000      -0.00317771      -0.00507761      -0.00538408
O        2.91189669       0.01259042       1.87356012       36      -2.00000000      -2.00000000      -0.00065357       0.00134358      -0.00566481
O        2.86537842       0.05603238       6.30384080       36      -2.00000000      -2.00000000       0.00488050      -0.00290330       0.00024266
O        0.00109296       5.87297036       6.30454164       36      -2.00000000      -2.00000000      -0.00221559      -0.00055188      -0.00113991
O        0.04616257       5.91692963       1.87729943       36      -2.00000000      -2.00000000      -0.00513961      -0.00420371      -0.00332165
40
Lattice="5.875667024672669 0.0 0.0 -0.009753760631864193 11.763131871838533 0.0 0.0052133463608394544 0.0006457000604662049 8.179038804713532" Properties=species:S:1:pos:R:3:spacegroup_kinds:I:1:field_charges:R:1:initial_charges:R:1:forces:R:3 spacegroup="P b a m" unit_cell=conventional occupancy="_JSON {\"0\": {\"Pb\": 1.0}, \"1\": {\"Pb\": 1.0}, \"2\": {\"Pb\": 1.0}, \"3\": {\"Pb\": 1.0}, \"4\": {\"Pb\": 1.0}, \"5\": {\"Pb\": 1.0}, \"6\": {\"Pb\": 1.0}, \"7\": {\"Pb\": 1.0}, \"8\": {\"Zr\": 1.0}, \"9\": {\"Zr\": 1.0}, \"10\": {\"Zr\": 1.0}, \"11\": {\"Zr\": 1.0}, \"12\": {\"Zr\": 1.0}, \"13\": {\"Zr\": 1.0}, \"14\": {\"Zr\": 1.0}, \"15\": {\"Zr\": 1.0}, \"16\": {\"O\": 1.0}, \"17\": {\"O\": 1.0}, \"18\": {\"O\": 1.0}, \"19\": {\"O\": 1.0}, \"20\": {\"O\": 1.0}, \"21\": {\"O\": 1.0}, \"22\": {\"O\": 1.0}, \"23\": {\"O\": 1.0}, \"24\": {\"O\": 1.0}, \"25\": {\"O\": 1.0}, \"26\": {\"O\": 1.0}, \"27\": {\"O\": 1.0}, \"28\": {\"O\": 1.0}, \"29\": {\"O\": 1.0}, \"30\": {\"O\": 1.0}, \"31\": {\"O\": 1.0}, \"32\": {\"O\": 1.0}, \"33\": {\"O\": 1.0}, \"34\": {\"O\": 1.0}, \"35\": {\"O\": 1.0}, \"36\": {\"O\": 1.0}, \"37\": {\"O\": 1.0}, \"38\": {\"O\": 1.0}, \"39\": {\"O\": 1.0}}" neb_image=3 energy=-39205.76967888985 polarization_c_per_m2="_JSON [0.022597651833466986, -0.047723197809252764, -0.0350113868368299]" pbc="T T T"
Pb       1.19220884       1.38691936      -0.06395625        0       2.00000000       2.00000000       0.00304225       0.00020971       0.02355862
Pb       4.71051952      10.23048052       0.00629834        0       2.00000000       2.00000000      -0.00082300       0.01958486       0.02006059
Pb       1.78490464       7.28530110       0.01034800        0       2.00000000       2.00000000      -0.00802779       0.00584532       0.01246387
Pb       4.11965905       4.35832921      -0.06537534        0       2.00000000       2.00000000      -0.00181478       0.01975458       0.02124756
Pb       1.19941973       1.46711914       4.03619351        4       2.00000000       2.00000000       0.00842143       0.01816036       0.03432980
Pb       4.62218306      10.20908108       4.07864359        4       2.00000000       2.00000000       0.00391825       0.01288180       0.01217768
Pb       1.75562125       7.33813672       4.07239403        4       2.00000000       2.00000000      -0.01093690       0.01282338       0.01996210
Pb       4.20295745       4.30654091       4.05321241        4       2.00000000       2.00000000      -0.00217568       0.01719641       0.01391095
Zr       4.35406477       1.44422474       2.02391989        8       4.00000000       4.00000000       0.00343783       0.00429118       0.00588600
Zr       1.50549661      10.27530654       6.12687847        8       4.00000000       4.00000000       0.00161066       0.00353963       0.00438652
Zr       1.51112601      10.28584843       2.04636982        8       4.00000000       4.00000000       0.00143759       0.00216913       0.00315317
Zr       4.35309627       1.43472197       6.13164881        8       4.00000000       4.00000000       0.00261134       0.00579800       0.00474432
Zr       4.47300169       7.32124052       6.13944706        8       4.00000000       4.00000000      -0.00353151       0.00606114       0.00295921
Zr       1.43696371       4.39824438       2.03835284        8       4.00000000       4.00000000      -0.00119497       0.00061013       0.00312860
Zr       1.43615771       4.40050772       6.12153546        8       4.00000000       4.00000000      -0.00119741       0.00366876       0.00462830
Zr       4.47773045       7.31632431       2.03565229        8       4.00000000       4.00000000      -0.00446604       0.00389458       0.00333842
O        4.50380813       1.86839682      -0.00182788       16      -2.00000000      -2.00000000       0.01505187       0.00655502      -0.00035967
O        1.27497531       9.95424966       0.00378353       16      -2.00000000      -2.00000000       0.00726699      -0.01290374      -0.00173263
O        4.27024392       7.74033261       0.00294745       16      -2.00000000      -2.00000000      -0.00534445       0.00308259      -0.00079748
O        1.64651097       4.05389272       0.00020739       16      -2.00000000      -2.00000000      -0.01146227      -0.01158911      -0.00157148
O        4.67136161       1.13632769       4.09292085       20      -2.00000000      -2.00000000       0.00781553      -0.02228393      -0.00212978
O        1.13439480      10.65506419       4.09298106       20      -2.00000000      -2.00000000       0.00313373       0.00723357      -0.00262822
O        4.13411342       7.03723932       4.09229787       20      -2.00000000      -2.00000000      -0.01052123      -0.02027956      -0.00207338
O        1.77836686       4.78812206       4.09392709       20      -2.00000000      -2.00000000       0.00090244       0.00576014      -0.00239681
O        3.09098984       3.06050245       2.32968311       24      -2.00000000      -2.00000000       0.01030103       0.00548020      -0.00620785
O        2.75982513       8.70966014       5.89414482       24      -2.00000000      -2.00000000       0.00254542       0.00049876      -0.01710241
O        2.74730908       8.69501653       2.29624705       24      -2.00000000      -2.00000000      -0.01147852      -0.01181561      -0.00128776
O        3.18263257       3.13548602       5.91289106       24      -2.00000000      -2.00000000      -0.01082677      -0.00965424      -0.01562579
O        5.65488061       8.99105654       5.91463430       24      -2.00000000      -2.00000000       0.01131148      -0.01021005      -0.01918165
O        0.10993016       2.88256273       2.33705464       24      -2.00000000      -2.00000000       0.01728977      -0.01790236       0.00256171
O        0.20309627       2.79617283       5.89950898       24      -2.00000000      -2.00000000      -0.00362368       0.00289837      -0.02796151
O        5.64155705       9.01032116       2.27289376       24      -2.00000000      -2.00000000      -0.00328873      -0.00099697      -0.00015869
O        2.95685044       5.89684363       1.68295784       32      -2.00000000      -2.00000000       0.00354823      -0.01090221      -0.02304599
O        2.92933911       5.91942102       6.52102273       32      -2.00000000      -2.00000000      -0.00475146      -0.00244267       0.00258327
O       -0.03155957       0.00882273       6.52731107       32      -2.00000000      -2.00000000       0.00659560      -0.00058597       0.00114410
O        0.02530872       0.06058682       1.68728244       32      -2.00000000      -2.00000000      -0.01093186      -0.01836334      -0.02823650
O        2.91743101       0.00654015       1.90239244       36      -2.00000000      -2.00000000       0.00281865      -0.00071384      -0.02508097
O        2.84749876       0.06872494       6.30771837       36      -2.00000000      -2.00000000       0.01213340      -0.00608055      -0.00117478
O        0.01507392       5.87689999       6.31447273       36      -2.00000000      -2.00000000      -0.01024288      -0.00465754      -0.00381764
O        0.07080343       5.93613504       1.89560490       36      -2.00000000      -2.00000000      -0.00855353      -0.00661591      -0.01365379
40