40
Lattice="5.871972 0.0 0.0 0.0 11.774171 0.0 0.0 0.0 8.178836" Properties=species:S:1:pos:R:3:spacegroup_kinds:I:1:field_charges:R:1:initial_charges:R:1:forces:R:3 spacegroup="P b a m" unit_cell=conventional occupancy="_JSON {\"0\": {\"Pb\": 1.0}, \"1\": {\"Pb\": 1.0}, \"2\": {\"Pb\": 1.0}, \"3\": {\"Pb\": 1.0}, \"4\": {\"Pb\": 1.0}, \"5\": {\"Pb\": 1.0}, \"6\": {\"Pb\": 1.0}, \"7\": {\"Pb\": 1.0}, \"8\": {\"Zr\": 1.0}, \"9\": {\"Zr\": 1.0}, \"10\": {\"Zr\": 1.0}, \"11\": {\"Zr\": 1.0}, \"12\": {\"Zr\": 1.0}, \"13\": {\"Zr\": 1.0}, \"14\": {\"Zr\": 1.0}, \"15\": {\"Zr\": 1.0}, \"16\": {\"O\": 1.0}, \"17\": {\"O\": 1.0}, \"18\": {\"O\": 1.0}, \"19\": {\"O\": 1.0}, \"20\": {\"O\": 1.0}, \"21\": {\"O\": 1.0}, \"22\": {\"O\": 1.0}, \"23\": {\"O\": 1.0}, \"24\": {\"O\": 1.0}, \"25\": {\"O\": 1.0}, \"26\": {\"O\": 1.0}, \"27\": {\"O\": 1.0}, \"28\": {\"O\": 1.0}, \"29\": {\"O\": 1.0}, \"30\": {\"O\": 1.0}, \"31\": {\"O\": 1.0}, \"32\": {\"O\": 1.0}, \"33\": {\"O\": 1.0}, \"34\": {\"O\": 1.0}, \"35\": {\"O\": 1.0}, \"36\": {\"O\": 1.0}, \"37\": {\"O\": 1.0}, \"38\": {\"O\": 1.0}, \"39\": {\"O\": 1.0}}" neb_image=0 energy=-39205.764739708866 polarization_c_per_m2="_JSON [-0.0012611573750599988, 0.0349032942069816, -1.3526432333244794e-15]" pbc="T T T"
Pb       1.17373646       1.45287285      -0.00000000        0       2.00000000       2.00000000       0.01811033      -0.02203254      -0.00000000
Pb       4.69823554      10.32129815      -0.00000000        0       2.00000000       2.00000000       0.02886545      -0.02506414      -0.00000000
Pb       1.76224954       7.33995835      -0.00000000        0       2.00000000       2.00000000       0.02886545      -0.02203254      -0.00000000
Pb       4.10972246       4.43421265      -0.00000000        0       2.00000000       2.00000000       0.01811033      -0.02506414      -0.00000000
Pb       1.22777814       1.51267559       4.08941800        4       2.00000000       2.00000000       0.01833476      -0.01928032       0.00000000
Pb       4.64419386      10.26149541       4.08941800        4       2.00000000       2.00000000       0.02864101      -0.02781637       0.00000000
Pb       1.70820786       7.39976109       4.08941800        4       2.00000000       2.00000000       0.02864101      -0.01928032       0.00000000
Pb       4.16376414       4.37440991       4.08941800        4       2.00000000       2.00000000       0.01833476      -0.02781637       0.00000000
Zr       4.35630128       1.46381254       2.04209901        8       4.00000000       4.00000000       0.04074979      -0.05115421       0.00128299
Zr       1.51567072      10.31035846       6.13673699        8       4.00000000       4.00000000       0.05320176      -0.04303916      -0.00128299
Zr       1.51567072      10.31035846       2.04209901        8       4.00000000       4.00000000       0.05320176      -0.04303916       0.00128299
Zr       4.35630128       1.46381254       6.13673699        8       4.00000000       4.00000000       0.04074979      -0.05115421      -0.00128299
Zr       4.45165672       7.35089804       6.13673699        8       4.00000000       4.00000000       0.05320176      -0.05115421      -0.00128299
Zr       1.42031528       4.42327296       2.04209901        8       4.00000000       4.00000000       0.04074979      -0.04303916       0.00128299
Zr       1.42031528       4.42327296       6.13673699        8       4.00000000       4.00000000       0.04074979      -0.04303916      -0.00128299
Zr       4.45165672       7.35089804       2.04209901        8       4.00000000       4.00000000       0.05320176      -0.05115421       0.00128299
O        4.55672239       1.85661981      -0.00000000       16      -2.00000000      -2.00000000      -0.01967453       0.01834648       0.00000000
O        1.31524961       9.91755119      -0.00000000       16      -2.00000000      -2.00000000      -0.02730124       0.02875020       0.00000000
O        4.25123561       7.74370531      -0.00000000       16      -2.00000000      -2.00000000      -0.02730124       0.01834648       0.00000000
O        1.62073639       4.03046569      -0.00000000       16      -2.00000000      -2.00000000      -0.01967453       0.02875020       0.00000000
O        4.70256932       1.10550087       4.08941800       20      -2.00000000      -2.00000000      -0.01760133       0.03098644      -0.00000000
O        1.16940268      10.66867013       4.08941800       20      -2.00000000      -2.00000000      -0.02937445       0.01611025      -0.00000000
O        4.10538868       6.99258637       4.08941800       20      -2.00000000      -2.00000000      -0.02937445       0.03098644      -0.00000000
O        1.76658332       4.78158463       4.08941800       20      -2.00000000      -2.00000000      -0.01760133       0.01611025      -0.00000000
O        3.12999853       3.08379167       2.30409508       24      -2.00000000      -2.00000000      -0.03345472       0.03894801      -0.00556508
O        2.74197347       8.69037933       5.87474092       24      -2.00000000      -2.00000000      -0.01352106       0.00814867       0.00556508
O        2.74197347       8.69037933       2.30409508       24      -2.00000000      -2.00000000      -0.01352106       0.00814867      -0.00556508
O        3.12999853       3.08379167       5.87474092       24      -2.00000000      -2.00000000      -0.03345472       0.03894801       0.00556508
O        5.67795947       8.97087717       5.87474092       24      -2.00000000      -2.00000000      -0.01352106       0.03894801       0.00556508
O        0.19401253       2.80329383       2.30409508       24      -2.00000000      -2.00000000      -0.03345472       0.00814867      -0.00556508
O        0.19401253       2.80329383       5.87474092       24      -2.00000000      -2.00000000      -0.03345472       0.00814867       0.00556508
O        5.67795947       8.97087717       2.30409508       24      -2.00000000      -2.00000000      -0.01352106       0.03894801      -0.00556508
O        2.93598600       5.88708550       1.65175084       32      -2.00000000      -2.00000000      -0.02348789       0.02354834       0.00096873
O        2.93598600       5.88708550       6.52708516       32      -2.00000000      -2.00000000      -0.02348789       0.02354834      -0.00096873
O        0.00000000       0.00000000       6.52708516       32      -2.00000000      -2.00000000      -0.02348789       0.02354834      -0.00096873
O       -0.00000000       0.00000000       1.65175084       32      -2.00000000      -2.00000000      -0.02348789       0.02354834       0.00096873
O        2.93598600       0.00000000       1.87160782       36      -2.00000000      -2.00000000      -0.02348789       0.02354834       0.00119428
O        2.93598600       0.00000000       6.30722818       36      -2.00000000      -2.00000000      -0.02348789       0.02354834      -0.00119428
O        0.00000000       5.88708550       6.30722818       36      -2.00000000      -2.00000000      -0.02348789       0.02354834      -0.00119428
O        0.00000000       5.88708550       1.87160782       36      -2.00000000      -2.00000000      -0.02348789       0.02354834       0.00119428
40
Lattice="5.870772690695567 0.0 0.0 5.5301416019170615e-05 11.772641222041504 0.0 -8.61217303945919e-06 0.002073140946248088 8.182732909175346" Properties=species:S:1:pos:R:3:spacegroup_kinds:I:1:field_charges:R:1:initial_charges:R:1:forces:R:3 spacegroup="P b a m" unit_cell=conventional occupancy="_JSON {\"0\": {\"Pb\": 1.0}, \"1\": {\"Pb\": 1.0}, \"2\": {\"Pb\": 1.0}, \"3\": {\"Pb\": 1.0}, \"4\": {\"Pb\": 1.0}, \"5\": {\"Pb\": 1.0}, \"6\": {\"Pb\": 1.0}, \"7\": {\"Pb\": 1.0}, \"8\": {\"Zr\": 1.0}, \"9\": {\"Zr\": 1.0}, \"10\": {\"Zr\": 1.0}, \"11\": {\"Zr\": 1.0}, \"12\": {\"Zr\": 1.0}, \"13\": {\"Zr\": 1.0}, \"14\": {\"Zr\": 1.0}, \"15\": {\"Zr\": 1.0}, \"16\": {\"O\": 1.0}, \"17\": {\"O\": 1.0}, \"18\": {\"O\": 1.0}, \"19\": {\"O\": 1.0}, \"20\": {\"O\": 1.0}, \"21\": {\"O\": 1.0}, \"22\": {\"O\": 1.0}, \"23\": {\"O\": 1.0}, \"24\": {\"O\": 1.0}, \"25\": {\"O\": 1.0}, \"26\": {\"O\": 1.0}, \"27\": {\"O\": 1.0}, \"28\": {\"O\": 1.0}, \"29\": {\"O\": 1.0}, \"30\": {\"O\": 1.0}, \"31\": {\"O\": 1.0}, \"32\": {\"O\": 1.0}, \"33\": {\"O\": 1.0}, \"34\": {\"O\": 1.0}, \"35\": {\"O\": 1.0}, \"36\": {\"O\": 1.0}, \"37\": {\"O\": 1.0}, \"38\": {\"O\": 1.0}, \"39\": {\"O\": 1.0}}" neb_image=1 energy=-39205.753751738455 polarization_c_per_m2="_JSON [-0.001010130877024106, 0.022009080371088445, -0.009058784593511827]" pbc="T T T"
Pb       1.18476741       1.44226824      -0.00773245        0       2.00000000       2.00000000      -0.04613558      -0.00615431       0.00127353
Pb       4.68617783      10.30805135      -0.00769034        0       2.00000000       2.00000000       0.09306729      -0.01742655       0.01811949
Pb       1.75078097       7.32855140      -0.00769107        0       2.00000000       2.00000000       0.09446180      -0.02113592       0.01782726
Pb       4.12016466       4.42177093      -0.00773015        0       2.00000000       2.00000000      -0.04736887      -0.00135038       0.00219237
Pb       1.23663953       1.50087028       4.08363316        4       2.00000000       2.00000000      -0.07199028       0.02716907       0.00093761
Pb       4.63419606      10.25157216       4.08370234        4       2.00000000       2.00000000       0.07851049      -0.03086957       0.02860764
Pb       1.69894902       7.38714656       4.08370267        4       2.00000000       2.00000000       0.13961577       0.00943786       0.02873862
Pb       4.17208892       4.36529839       4.08363063        4       2.00000000       2.00000000      -0.05215302      -0.01213059      -0.00007646
Zr       4.35743071       1.46215257       2.04161086        8       4.00000000       4.00000000       0.06828508      -0.03022427      -0.00783752
Zr       1.51375382      10.30784930       6.13798335        8       4.00000000       4.00000000       0.07778422      -0.07903742      -0.01360951
Zr       1.51372447      10.30687289       2.04164890        8       4.00000000       4.00000000       0.06432044      -0.05446469       0.00737742
Zr       4.35739168       1.46320436       6.13803815        8       4.00000000       4.00000000       0.05439532      -0.02464606       0.00830932
Zr       4.44903864       7.34943199       6.13804734        8       4.00000000       4.00000000       0.04273413      -0.06184079       0.01198625
Zr       1.42195703       4.42064703       2.04164111        8       4.00000000       4.00000000       0.02779009      -0.01656417       0.00426139
Zr       1.42191223       4.42166852       6.13800816        8       4.00000000       4.00000000       0.01159416      -0.02310383      -0.00368376
Zr       4.44901370       7.34833346       2.04158602        8       4.00000000       4.00000000       0.03103180      -0.08611510      -0.01777724
O        4.53804197       1.84774923       0.00073518       16      -2.00000000      -2.00000000       0.00335222       0.05412286      -0.01484339
O        1.33261784       9.93718317       0.00079352       16      -2.00000000      -2.00000000      -0.07064818      -0.03282819       0.00849418
O        4.24437062       7.73407869       0.00078826       16      -2.00000000      -2.00000000      -0.03190085       0.05766282       0.00638925
O        1.62639145       4.05085312       0.00074101       16      -2.00000000      -2.00000000       0.00551106      -0.03660212      -0.01251083
O        4.70191568       1.12659724       4.09215490       20      -2.00000000      -2.00000000      -0.00294825      -0.03227199       0.00646334
O        1.16874732      10.66042366       4.09212698       20      -2.00000000      -2.00000000      -0.05962744       0.05971402      -0.00470333
O        4.12773024       7.01295037       4.09213157       20      -2.00000000      -2.00000000      -0.10217759      -0.01926395      -0.00286922
O        1.74301012       4.77406882       4.09214802       20      -2.00000000      -2.00000000       0.07054613       0.04602315       0.00371153
O        3.11839882       3.07632484       2.30772534       24      -2.00000000      -2.00000000      -0.01478692       0.04157959       0.02071115
O        2.75722942       8.70566901       5.88344774       24      -2.00000000      -2.00000000      -0.05945645      -0.02259859      -0.04699395
O        2.74542463       8.69294736       2.30772375       24      -2.00000000      -2.00000000      -0.03883795       0.00771176       0.02007474
O        3.13027248       3.08912943       5.88352081       24      -2.00000000      -2.00000000      -0.00785747       0.04444599      -0.01776941
O        5.68769340       8.96371240       5.89996307       24      -2.00000000      -2.00000000      -0.03110378       0.10429125      -0.05312792
O        0.17801000       2.81836366       2.29128347       24      -2.00000000      -2.00000000      -0.01752488      -0.05242283       0.05622519
O        0.18988743       2.80738490       5.89996091       24      -2.00000000      -2.00000000      -0.00902558      -0.05309632      -0.05398824
O        5.67588721       8.97460767       2.29121184       24      -2.00000000      -2.00000000      -0.01110364       0.07156418       0.02757359
O        2.93882838       5.88455365       1.68006513       32      -2.00000000      -2.00000000      -0.00665533       0.05524334      -0.07899811
O        2.92696709       5.89757838       6.51113461       32      -2.00000000      -2.00000000      -0.00514513       0.01901311       0.06337748
O       -0.00353956      -0.00053878       6.52757084       32      -2.00000000      -2.00000000      -0.03995109       0.05529239       0.02560327
O        0.00831844       0.01003154       1.66362963       32      -2.00000000      -2.00000000      -0.04283989       0.01974059      -0.04093443
O        2.93871502      -0.00185242       1.89168545       36      -2.00000000      -2.00000000      -0.04085150      -0.00036738      -0.01239238
O        2.92687182       0.01120865       6.29955562       36      -2.00000000      -2.00000000      -0.03227911       0.02079120       0.01330036
O       -0.00342591       5.88558758       6.31608218       36      -2.00000000      -2.00000000      -0.00563878      -0.00098070       0.01166502
O        0.00841548       5.89641060       1.87515801       36      -2.00000000      -2.00000000      -0.01499245       0.02169254      -0.01110431
40
Lattice="5.869647545417136 0.0 0.0 0.00010225899880475027 11.771296353706195 0.0 -1.555073753932291e-05 0.004145818832087663 8.186750029397693" Properties=species:S:1:pos:R:3:spacegroup_kinds:I:1:field_charges:R:1:initial_charges:R:1:forces:R:3 spacegroup="P b a m" unit_cell=conventional occupancy="_JSON {\"0\": {\"Pb\": 1.0}, \"1\": {\"Pb\": 1.0}, \"2\": {\"Pb\": 1.0}, \"3\": {\"Pb\": 1.0}, \"4\": {\"Pb\": 1.0}, \"5\": {\"Pb\": 1.0}, \"6\": {\"Pb\": 1.0}, \"7\": {\"Pb\": 1.0}, \"8\": {\"Zr\": 1.0}, \"9\": {\"Zr\": 1.0}, \"10\": {\"Zr\": 1.0}, \"11\": {\"Zr\": 1.0}, \"12\": {\"Zr\": 1.0}, \"13\": {\"Zr\": 1.0}, \"14\": {\"Zr\": 1.0}, \"15\": {\"Zr\": 1.0}, \"16\": {\"O\": 1.0}, \"17\": {\"O\": 1.0}, \"18\": {\"O\": 1.0}, \"19\": {\"O\": 1.0}, \"20\": {\"O\": 1.0}, \"21\": {\"O\": 1.0}, \"22\": {\"O\": 1.0}, \"23\": {\"O\": 1.0}, \"24\": {\"O\": 1.0}, \"25\": {\"O\": 1.0}, \"26\": {\"O\": 1.0}, \"27\": {\"O\": 1.0}, \"28\": {\"O\": 1.0}, \"29\": {\"O\": 1.0}, \"30\": {\"O\": 1.0}, \"31\": {\"O\": 1.0}, \"32\": {\"O\": 1.0}, \"33\": {\"O\": 1.0}, \"34\": {\"O\": 1.0}, \"35\": {\"O\": 1.0}, \"36\": {\"O\": 1.0}, \"37\": {\"O\": 1.0}, \"38\": {\"O\": 1.0}, \"39\": {\"O\": 1.0}}" neb_image=2 energy=-39205.71513958452 polarization_c_per_m2="_JSON [-0.0007591988112773423, 0.009118021066964603, -0.018122992398369557]" pbc="T T T"
Pb       1.19578128       1.43172785      -0.01547607        0       2.00000000       2.00000000      -0.10051574       0.00273694      -0.00046876
Pb       4.67407584      10.29501331      -0.01540360        0       2.00000000       2.00000000       0.14357167      -0.01813461       0.02852077
Pb       1.73924388       7.31731532      -0.01540199        0       2.00000000       2.00000000       0.15064408      -0.02154757       0.02916470
Pb       4.13063175       4.40943596      -0.01547261        0       2.00000000       2.00000000      -0.10018287       0.01019571       0.00091446
Pb       1.24550368       1.48909878       4.07789446        4       2.00000000       2.00000000      -0.14562027       0.05625495      -0.00226515
Pb       4.62415726      10.24187659       4.07801882        4       2.00000000       2.00000000       0.11642790      -0.03629404       0.04748166
Pb       1.68959267       7.37467360       4.07801353        4       2.00000000       2.00000000       0.23006618       0.02690987       0.04536545
Pb       4.18044707       4.35631068       4.07789115        4       2.00000000       2.00000000      -0.10773596      -0.00338917      -0.00358901
Zr       4.35850449       1.46063680       2.04115102        8       4.00000000       4.00000000       0.09321121      -0.01219340      -0.01608713
Zr       1.51171677      10.30561871       6.13932675        8       4.00000000       4.00000000       0.10161958      -0.11169314      -0.02417360
Zr       1.51166056      10.30366046       2.04122438        8       4.00000000       4.00000000       0.07602076      -0.06485473       0.01325438
Zr       4.35843195       1.46273826       6.13943078        8       4.00000000       4.00000000       0.06731031      -0.00175106       0.01743974
Zr       4.44634523       7.34821463       6.13944913        8       4.00000000       4.00000000       0.03377050      -0.07047550       0.02477704
Zr       1.42351331       4.41819053       2.04121171        8       4.00000000       4.00000000       0.01597179       0.00644677       0.00818594
Zr       1.42342853       4.42023353       6.13937243        8       4.00000000       4.00000000      -0.01482889      -0.00649225      -0.00590377
Zr       4.44629619       7.34602272       2.04110503        8       4.00000000       4.00000000       0.01104138      -0.11709826      -0.03448332
O        4.51946248       1.83886495       0.00147199       16      -2.00000000      -2.00000000       0.01824077       0.08835117      -0.02918151
O        1.35007115       9.95691118       0.00158431       16      -2.00000000      -2.00000000      -0.10479670      -0.08347457       0.01574877
O        4.23762615       7.72452463       0.00157530       16      -2.00000000      -2.00000000      -0.03698407       0.09294953       0.01214567
O        1.63210927       4.07124880       0.00148324       16      -2.00000000      -2.00000000       0.03114714      -0.08915506      -0.02468137
O        4.70136474       1.14764945       4.09495202       20      -2.00000000      -2.00000000       0.01145269      -0.08320735       0.01282649
O        1.16818023      10.65230253       4.09489608       20      -2.00000000      -2.00000000      -0.08725372       0.10009815      -0.00955035
O        4.15021456       7.03335738       4.09490260       20      -2.00000000      -2.00000000      -0.15801737      -0.05930714      -0.00694080
O        1.71947395       4.76658878       4.09493686       20      -2.00000000      -2.00000000       0.13963914       0.07386511       0.00676442
O        3.10692494       3.06881282       2.31140440       24      -2.00000000      -2.00000000       0.00174003       0.04296248       0.04692871
O        2.77256057       8.72109343       5.89225868       24      -2.00000000      -2.00000000      -0.09503784      -0.04253770      -0.08801184
O        2.74894283       8.69563285       2.31139703       24      -2.00000000      -2.00000000      -0.06098811       0.00828500       0.04398304
O        3.13066507       3.09441883       5.89238376       24      -2.00000000      -2.00000000       0.01664649       0.05031241      -0.03797766
O        5.69752750       8.95657949       5.92530579       24      -2.00000000      -2.00000000      -0.04480433       0.15823784      -0.09679008
O        0.16208508       2.83346999       2.27848315       24      -2.00000000      -2.00000000      -0.01014415      -0.10052304       0.10605405
O        0.18583412       2.81153610       5.92530430       24      -2.00000000      -2.00000000       0.00854479      -0.10327261      -0.09738697
O        5.67391079       8.97836451       2.27835775       24      -2.00000000      -2.00000000      -0.01056036       0.10143715       0.05589399
O        2.94175546       5.88206552       1.70846399       32      -2.00000000      -2.00000000       0.00852761       0.08472142      -0.13907267
O        2.91803245       5.90810084       6.49524345       32      -2.00000000      -2.00000000       0.00665926       0.01974570       0.11573610
O       -0.00701333      -0.00114110       6.52814792       32      -2.00000000      -2.00000000      -0.05534623       0.08516913       0.04989860
O        0.01670327       0.02001869       1.67556100       32      -2.00000000      -2.00000000      -0.05625687       0.02233006      -0.07264357
O        2.94154007      -0.00375079       1.91181039       36      -2.00000000      -2.00000000      -0.05702388      -0.02366057      -0.02046513
O        2.91785702       0.02235129       6.29196724       36      -2.00000000      -2.00000000      -0.04321806       0.02032224       0.02520383
O       -0.00679520       5.88413096       6.32503749       36      -2.00000000      -2.00000000       0.01130169      -0.02415378       0.02567908
O        0.01688406       5.90576856       1.87873676       36      -2.00000000      -2.00000000      -0.00423955       0.02188393      -0.02229419
40
Lattice="5.868528760763281 0.0 0.0 0.00014245025749814655 11.769963321962218 0.0 -2.1046288079504358e-05 0.0062158293921835105 8.19076597379216" Properties=species:S:1:pos:R:3:spacegroup_kinds:I:1:field_charges:R:1:initial_charges:R:1:forces:R:3 spacegroup="P b a m" unit_cell=conventional occupancy="_JSON {\"0\": {\"Pb\": 1.0}, \"1\": {\"Pb\": 1.0}, \"2\": {\"Pb\": 1.0}, \"3\": {\"Pb\": 1.0}, \"4\": {\"Pb\": 1.0}, \"5\": {\"Pb\": 1.0}, \"6\": {\"Pb\": 1.0}, \"7\": {\"Pb\": 1.0}, \"8\": {\"Zr\": 1.0}, \"9\": {\"Zr\": 1.0}, \"10\": {\"Zr\": 1.0}, \"11\": {\"Zr\": 1.0}, \"12\": {\"Zr\": 1.0}, \"13\": {\"Zr\": 1.0}, \"14\": {\"Zr\": 1.0}, \"15\": {\"Zr\": 1.0}, \"16\": {\"O\": 1.0}, \"17\": {\"O\": 1.0}, \"18\": {\"O\": 1.0}, \"19\": {\"O\": 1.0}, \"20\": {\"O\": 1.0}, \"21\": {\"O\": 1.0}, \"22\": {\"O\": 1.0}, \"23\": {\"O\": 1.0}, \"24\": {\"O\": 1.0}, \"25\": {\"O\": 1.0}, \"26\": {\"O\": 1.0}, \"27\": {\"O\": 1.0}, \"28\": {\"O\": 1.0}, \"29\": {\"O\": 1.0}, \"30\": {\"O\": 1.0}, \"31\": {\"O\": 1.0}, \"32\": {\"O\": 1.0}, \"33\": {\"O\": 1.0}, \"34\": {\"O\": 1.0}, \"35\": {\"O\": 1.0}, \"36\": {\"O\": 1.0}, \"37\": {\"O\": 1.0}, \"38\": {\"O\": 1.0}, \"39\": {\"O\": 1.0}}" neb_image=3 energy=-39205.65626413489 polarization_c_per_m2="_JSON [-0.0005083609368175557, -0.003769895130438561, -0.027192627149854997]" pbc="T T T"
Pb       1.20679686       1.42118773      -0.02322274        0       2.00000000       2.00000000      -0.14576926       0.00550066      -0.00507135
Pb       4.66196300      10.28198442      -0.02312893        0       2.00000000       2.00000000       0.18150403      -0.02599979       0.03245375
Pb       1.72770234       7.30609675      -0.02312383        0       2.00000000       2.00000000       0.19739944      -0.02355532       0.03449219
Pb       4.14110767       4.39709642      -0.02321879        0       2.00000000       2.00000000      -0.14160599       0.01146420      -0.00349279
Pb       1.25438889       1.47730859       4.07215072        4       2.00000000       2.00000000      -0.20425714       0.07053348      -0.00888123
Pb       4.61410827      10.23219682       4.07231746        4       2.00000000       2.00000000       0.14333199      -0.04405748       0.05781458
Pb       1.68020451       7.36219930       4.07230256        4       2.00000000       2.00000000       0.30147716       0.03415374       0.05185283
Pb       4.18882306       4.34732362       4.07214681        4       2.00000000       2.00000000      -0.15023534      -0.00067411      -0.01044647
Zr       4.35957264       1.45911712       2.04069386        8       4.00000000       4.00000000       0.11559038       0.00291435      -0.02345373
Zr       1.50967743      10.30340850       6.14067461        8       4.00000000       4.00000000       0.12443265      -0.14096539      -0.03294951
Zr       1.50959699      10.30046386       2.04079943        8       4.00000000       4.00000000       0.08804369      -0.07425177       0.01877517
Zr       4.35947191       1.46226531       6.14082200        8       4.00000000       4.00000000       0.07951060       0.01762552       0.02600539
Zr       4.44366047       7.34700987       6.14084934        8       4.00000000       4.00000000       0.02621008      -0.07722035       0.03694257
Zr       1.42506843       4.41573239       2.04078494        8       4.00000000       4.00000000       0.00534361       0.02582788       0.01297792
Zr       1.42494852       4.41879640       6.14073688        8       4.00000000       4.00000000      -0.03840782       0.00686372      -0.00804333
Zr       4.44358869       7.34373152       2.04063046        8       4.00000000       4.00000000      -0.00671929      -0.14399007      -0.04881229
O        4.50090257       1.82999321       0.00221001       16      -2.00000000      -2.00000000       0.02602142       0.12060957      -0.04286900
O        1.36750938       9.97663999       0.00237175       16      -2.00000000      -2.00000000      -0.12990079      -0.12338182       0.02182711
O        4.23089190       7.71498353       0.00236037       16      -2.00000000      -2.00000000      -0.04250911       0.12407672       0.01727629
O        1.63781569       4.09164293       0.00222636       16      -2.00000000      -2.00000000       0.05689129      -0.12953844      -0.03632850
O        4.70081743       1.16869522       4.09774770       20      -2.00000000      -2.00000000       0.02542233      -0.12271920       0.01901374
O        1.16761617      10.64419674       4.09766390       20      -2.00000000      -2.00000000      -0.11222147       0.13712362      -0.01450702
O        4.17269617       7.05376015       4.09767002       20      -2.00000000      -2.00000000      -0.19777929      -0.08940928      -0.01205811
O        1.69593908       4.75912078       4.09772325       20      -2.00000000      -2.00000000       0.19164118       0.09940099       0.00923187
O        3.09546824       3.06131522       2.31508088       24      -2.00000000      -2.00000000       0.01608991       0.04329598       0.07277264
O        2.78788426       8.73652521       5.90109003       24      -2.00000000      -2.00000000      -0.12121177      -0.05308495      -0.11924790
O        2.75245964       8.69832440       2.31506415       24      -2.00000000      -2.00000000      -0.07997998       0.00972890       0.06608167
O        3.13105545       3.09970608       5.90125058       24      -2.00000000      -2.00000000       0.03989637       0.05649937      -0.05502791
O        5.70735147       8.94945242       5.95067043       24      -2.00000000      -2.00000000      -0.05508099       0.20175410      -0.12657206
O        0.14617027       2.84857443       2.26566297       24      -2.00000000      -2.00000000      -0.01039132      -0.13697621       0.14509463
O        0.18177404       2.81571841       5.95067046       24      -2.00000000      -2.00000000       0.02048530      -0.14376521      -0.12656043
O        5.67193325       8.98210839       2.26549867       24      -2.00000000      -2.00000000      -0.01173642       0.12852316       0.07937533
O        2.94467254       5.87959428       1.73689369       32      -2.00000000      -2.00000000       0.02228414       0.11160050      -0.18084247
O        2.90910012       5.91861185       6.47933406       32      -2.00000000      -2.00000000       0.01260840       0.02489049       0.15710753
O       -0.01047666      -0.00174797       6.52871974       32      -2.00000000      -2.00000000      -0.06961330       0.11300700       0.07189487
O        0.02508531       0.03000738       1.68750855       32      -2.00000000      -2.00000000      -0.06456427       0.03012727      -0.09541351
O        2.94436538      -0.00563382       1.93193791       36      -2.00000000      -2.00000000      -0.07188809      -0.04605724      -0.02332891
O        2.90885782       0.03347519       6.28437735       36      -2.00000000      -2.00000000      -0.05602313       0.02197230       0.03459430
O       -0.01016283       5.88268889       6.33399116       36      -2.00000000      -2.00000000       0.02723129      -0.04583782       0.04063644
O        0.02533864       5.91512141       1.88231673       36      -2.00000000      -2.00000000       0.00847951       0.02399093      -0.03231430
40