40
Lattice="5.871972 0.0 0.0 0.0 11.774171 0.0 0.0 0.0 8.178836" Properties=species:S:1:pos:R:3:spacegroup_kinds:I:1:field_charges:R:1:initial_charges:R:1:forces:R:3 spacegroup="P b a m" unit_cell=conventional occupancy="_JSON {\"0\": {\"Pb\": 1.0}, \"1\": {\"Pb\": 1.0}, \"2\": {\"Pb\": 1.0}, \"3\": {\"Pb\": 1.0}, \"4\": {\"Pb\": 1.0}, \"5\": {\"Pb\": 1.0}, \"6\": {\"Pb\": 1.0}, \"7\": {\"Pb\": 1.0}, \"8\": {\"Zr\": 1.0}, \"9\": {\"Zr\": 1.0}, \"10\": {\"Zr\": 1.0}, \"11\": {\"Zr\": 1.0}, \"12\": {\"Zr\": 1.0}, \"13\": {\"Zr\": 1.0}, \"14\": {\"Zr\": 1.0}, \"15\": {\"Zr\": 1.0}, \"16\": {\"O\": 1.0}, \"17\": {\"O\": 1.0}, \"18\": {\"O\": 1.0}, \"19\": {\"O\": 1.0}, \"20\": {\"O\": 1.0}, \"21\": {\"O\": 1.0}, \"22\": {\"O\": 1.0}, \"23\": {\"O\": 1.0}, \"24\": {\"O\": 1.0}, \"25\": {\"O\": 1.0}, \"26\": {\"O\": 1.0}, \"27\": {\"O\": 1.0}, \"28\": {\"O\": 1.0}, \"29\": {\"O\": 1.0}, \"30\": {\"O\": 1.0}, \"31\": {\"O\": 1.0}, \"32\": {\"O\": 1.0}, \"33\": {\"O\": 1.0}, \"34\": {\"O\": 1.0}, \"35\": {\"O\": 1.0}, \"36\": {\"O\": 1.0}, \"37\": {\"O\": 1.0}, \"38\": {\"O\": 1.0}, \"39\": {\"O\": 1.0}}" neb_image=0 energy=-39205.764739708866 polarization_c_per_m2="_JSON [-0.0012611573750599988, 0.0349032942069816, -1.3526432333244794e-15]" pbc="T T T"
Pb       1.17373646       1.45287285      -0.00000000        0       2.00000000       2.00000000       0.01811033      -0.02203254      -0.00000000
Pb       4.69823554      10.32129815      -0.00000000        0       2.00000000       2.00000000       0.02886545      -0.02506414      -0.00000000
Pb       1.76224954       7.33995835      -0.00000000        0       2.00000000       2.00000000       0.02886545      -0.02203254      -0.00000000
Pb       4.10972246       4.43421265      -0.00000000        0       2.00000000       2.00000000       0.01811033      -0.02506414      -0.00000000
Pb       1.22777814       1.51267559       4.08941800        4       2.00000000       2.00000000       0.01833476      -0.01928032       0.00000000
Pb       4.64419386      10.26149541       4.08941800        4       2.00000000       2.00000000       0.02864101      -0.02781637       0.00000000
Pb       1.70820786       7.39976109       4.08941800        4       2.00000000       2.00000000       0.02864101      -0.01928032       0.00000000
Pb       4.16376414       4.37440991       4.08941800        4       2.00000000       2.00000000       0.01833476      -0.02781637       0.00000000
Zr       4.35630128       1.46381254       2.04209901        8       4.00000000       4.00000000       0.04074979      -0.05115421       0.00128299
Zr       1.51567072      10.31035846       6.13673699        8       4.00000000       4.00000000       0.05320176      -0.04303916      -0.00128299
Zr       1.51567072      10.31035846       2.04209901        8       4.00000000       4.00000000       0.05320176      -0.04303916       0.00128299
Zr       4.35630128       1.46381254       6.13673699        8       4.00000000       4.00000000       0.04074979      -0.05115421      -0.00128299
Zr       4.45165672       7.35089804       6.13673699        8       4.00000000       4.00000000       0.05320176      -0.05115421      -0.00128299
Zr       1.42031528       4.42327296       2.04209901        8       4.00000000       4.00000000       0.04074979      -0.04303916       0.00128299
Zr       1.42031528       4.42327296       6.13673699        8       4.00000000       4.00000000       0.04074979      -0.04303916      -0.00128299
Zr       4.45165672       7.35089804       2.04209901        8       4.00000000       4.00000000       0.05320176      -0.05115421       0.00128299
O        4.55672239       1.85661981      -0.00000000       16      -2.00000000      -2.00000000      -0.01967453       0.01834648       0.00000000
O        1.31524961       9.91755119      -0.00000000       16      -2.00000000      -2.00000000      -0.02730124       0.02875020       0.00000000
O        4.25123561       7.74370531      -0.00000000       16      -2.00000000      -2.00000000      -0.02730124       0.01834648       0.00000000
O        1.62073639       4.03046569      -0.00000000       16      -2.00000000      -2.00000000      -0.01967453       0.02875020       0.00000000
O        4.70256932       1.10550087       4.08941800       20      -2.00000000      -2.00000000      -0.01760133       0.03098644      -0.00000000
O        1.16940268      10.66867013       4.08941800       20      -2.00000000      -2.00000000      -0.02937445       0.01611025      -0.00000000
O        4.10538868       6.99258637       4.08941800       20      -2.00000000      -2.00000000      -0.02937445       0.03098644      -0.00000000
O        1.76658332       4.78158463       4.08941800       20      -2.00000000      -2.00000000      -0.01760133       0.01611025      -0.00000000
O        3.12999853       3.08379167       2.30409508       24      -2.00000000      -2.00000000      -0.03345472       0.03894801      -0.00556508
O        2.74197347       8.69037933       5.87474092       24      -2.00000000      -2.00000000      -0.01352106       0.00814867       0.00556508
O        2.74197347       8.69037933       2.30409508       24      -2.00000000      -2.00000000      -0.01352106       0.00814867      -0.00556508
O        3.12999853       3.08379167       5.87474092       24      -2.00000000      -2.00000000      -0.03345472       0.03894801       0.00556508
O        5.67795947       8.97087717       5.87474092       24      -2.00000000      -2.00000000      -0.01352106       0.03894801       0.00556508
O        0.19401253       2.80329383       2.30409508       24      -2.00000000      -2.00000000      -0.03345472       0.00814867      -0.00556508
O        0.19401253       2.80329383       5.87474092       24      -2.00000000      -2.00000000      -0.03345472       0.00814867       0.00556508
O        5.67795947       8.97087717       2.30409508       24      -2.00000000      -2.00000000      -0.01352106       0.03894801      -0.00556508
O        2.93598600       5.88708550       1.65175084       32      -2.00000000      -2.00000000      -0.02348789       0.02354834       0.00096873
O        2.93598600       5.88708550       6.52708516       32      -2.00000000      -2.00000000      -0.02348789       0.02354834      -0.00096873
O        0.00000000       0.00000000       6.52708516       32      -2.00000000      -2.00000000      -0.02348789       0.02354834      -0.00096873
O       -0.00000000       0.00000000       1.65175084       32      -2.00000000      -2.00000000      -0.02348789       0.02354834       0.00096873
O        2.93598600       0.00000000       1.87160782       36      -2.00000000      -2.00000000      -0.02348789       0.02354834       0.00119428
O        2.93598600       0.00000000       6.30722818       36      -2.00000000      -2.00000000      -0.02348789       0.02354834      -0.00119428
O        0.00000000       5.88708550       6.30722818       36      -2.00000000      -2.00000000      -0.02348789       0.02354834      -0.00119428
O        0.00000000       5.88708550       1.87160782       36      -2.00000000      -2.00000000      -0.02348789       0.02354834       0.00119428
40
Lattice="5.869494464535564 0.0 0.0 -0.004804790620343693 11.76589829528876 0.0 -2.8528433769810563e-05 -5.002905590332554e-07 8.171530436392112" Properties=species:S:1:pos:R:3:spacegroup_kinds:I:1:field_charges:R:1:initial_charges:R:1:forces:R:3 spacegroup="P b a m" unit_cell=conventional occupancy="_JSON {\"0\": {\"Pb\": 1.0}, \"1\": {\"Pb\": 1.0}, \"2\": {\"Pb\": 1.0}, \"3\": {\"Pb\": 1.0}, \"4\": {\"Pb\": 1.0}, \"5\": {\"Pb\": 1.0}, \"6\": {\"Pb\": 1.0}, \"7\": {\"Pb\": 1.0}, \"8\": {\"Zr\": 1.0}, \"9\": {\"Zr\": 1.0}, \"10\": {\"Zr\": 1.0}, \"11\": {\"Zr\": 1.0}, \"12\": {\"Zr\": 1.0}, \"13\": {\"Zr\": 1.0}, \"14\": {\"Zr\": 1.0}, \"15\": {\"Zr\": 1.0}, \"16\": {\"O\": 1.0}, \"17\": {\"O\": 1.0}, \"18\": {\"O\": 1.0}, \"19\": {\"O\": 1.0}, \"20\": {\"O\": 1.0}, \"21\": {\"O\": 1.0}, \"22\": {\"O\": 1.0}, \"23\": {\"O\": 1.0}, \"24\": {\"O\": 1.0}, \"25\": {\"O\": 1.0}, \"26\": {\"O\": 1.0}, \"27\": {\"O\": 1.0}, \"28\": {\"O\": 1.0}, \"29\": {\"O\": 1.0}, \"30\": {\"O\": 1.0}, \"31\": {\"O\": 1.0}, \"32\": {\"O\": 1.0}, \"33\": {\"O\": 1.0}, \"34\": {\"O\": 1.0}, \"35\": {\"O\": 1.0}, \"36\": {\"O\": 1.0}, \"37\": {\"O\": 1.0}, \"38\": {\"O\": 1.0}, \"39\": {\"O\": 1.0}}" neb_image=1 energy=-39205.78203741274 polarization_c_per_m2="_JSON [0.020289870193788875, -0.0073470420680774645, 3.0130699154241013e-05]" pbc="T T T"
Pb       1.19186445       1.41308286       0.00028511        0       2.00000000       2.00000000       0.00415000      -0.00841149      -0.00003420
Pb       4.70483181      10.27828751      -0.00025301        0       2.00000000       2.00000000       0.00273685      -0.00774720       0.00001262
Pb       1.76978267       7.30661113      -0.00024492        0       2.00000000       2.00000000       0.00242679      -0.00610330       0.00001416
Pb       4.11711228       4.39859223       0.00031238        0       2.00000000       2.00000000       0.00234050      -0.00705336      -0.00003754
Pb       1.22251484       1.49254032       4.08588530        4       2.00000000       2.00000000      -0.00093380      -0.00413252      -0.00002458
Pb       4.63373512      10.23393341       4.08569858        4       2.00000000       2.00000000      -0.00096106      -0.00441319      -0.00000090
Pb       1.72861901       7.36589902       4.08569558        4       2.00000000       2.00000000       0.00523536      -0.00619934      -0.00000151
Pb       4.18561388       4.34251161       4.08587593        4       2.00000000       2.00000000       0.00548985      -0.00623900      -0.00001884
Zr       4.35578718       1.45171742       2.03683236        8       4.00000000       4.00000000       0.00039984      -0.00238209      -0.00075933
Zr       1.51430653      10.29141684       6.12762007        8       4.00000000       4.00000000       0.00072613      -0.00253849      -0.00078450
Zr       1.51427168      10.29135605       2.04387133        8       4.00000000       4.00000000       0.00073100      -0.00253247       0.00078371
Zr       4.35581315       1.45178236       6.13476641        8       4.00000000       4.00000000       0.00039767      -0.00238750       0.00074676
Zr       4.45931785       7.33200028       6.13419859        8       4.00000000       4.00000000       0.00270806      -0.00295914       0.00064325
Zr       1.42813657       4.40705689       2.04325298        8       4.00000000       4.00000000       0.00221422      -0.00283605       0.00063401
Zr       1.42816918       4.40699698       6.12834026        8       4.00000000       4.00000000       0.00221145      -0.00283328      -0.00064363
Zr       4.45928240       7.33206452       2.03728730        8       4.00000000       4.00000000       0.00271310      -0.00296354      -0.00064187
O        4.53350648       1.87322048       0.00001471       16      -2.00000000      -2.00000000      -0.00447523       0.00384772      -0.00000141
O        1.29447745       9.93175806      -0.00001397       16      -2.00000000      -2.00000000      -0.00349777       0.00457905       0.00000195
O        4.25045332       7.74402373      -0.00001560       16      -2.00000000      -2.00000000       0.00094451       0.00123487       0.00000228
O        1.62333055       4.03705921       0.00001318       16      -2.00000000      -2.00000000       0.00110524       0.00204218      -0.00000035
O        4.68352388       1.11452629       4.08575786       20      -2.00000000      -2.00000000      -0.00360512       0.00210940       0.00000113
O        1.14930392      10.66892283       4.08576683       20      -2.00000000      -2.00000000      -0.00329193       0.00165674       0.00000114
O        4.10832540       7.00366967       4.08576613       20      -2.00000000      -2.00000000       0.00166678       0.00347257       0.00000102
O        1.76975199       4.78882721       4.08575603       20      -2.00000000      -2.00000000       0.00128232       0.00228106       0.00000170
O        3.13245805       3.09502319       2.29803236       24      -2.00000000      -2.00000000       0.00102191       0.00282579      -0.00081695
O        2.74584594       8.69559959       5.86940325       24      -2.00000000      -2.00000000       0.00192170       0.00251227      -0.00002909
O        2.74619475       8.69593229       2.30227138       24      -2.00000000      -2.00000000       0.00190374       0.00249158       0.00002883
O        3.13202456       3.09462282       5.87324837       24      -2.00000000      -2.00000000       0.00107499       0.00287189       0.00085298
O        5.66016243       8.98173926       5.88293082       24      -2.00000000      -2.00000000      -0.00248747       0.00366766       0.00288960
O        0.17662402       2.81607399       2.31244014       24      -2.00000000      -2.00000000      -0.00357905       0.00327859       0.00228569
O        0.17619564       2.81647653       5.85888080       24      -2.00000000      -2.00000000      -0.00352631       0.00322747      -0.00225838
O        5.66051031       8.98141300       2.28876839       24      -2.00000000      -2.00000000      -0.00250484       0.00368675      -0.00289335
O        2.92595839       5.90263849       1.65381346       32      -2.00000000      -2.00000000      -0.00129790       0.00420667       0.00078375
O        2.92627676       5.90237323       6.51771383       32      -2.00000000      -2.00000000      -0.00132501       0.00422833      -0.00077694
O       -0.00713783       0.01300011       6.52017094       32      -2.00000000      -2.00000000      -0.00159544       0.00277316      -0.00023267
O       -0.00745870       0.01273211       1.65132331       32      -2.00000000      -2.00000000      -0.00155955       0.00280336       0.00024815
O        2.90032964       0.02648494       1.86861154       36      -2.00000000      -2.00000000      -0.00737683       0.00565831      -0.00028017
O        2.90082230       0.02601775       6.30291929       36      -2.00000000      -2.00000000      -0.00742450       0.00570117       0.00028881
O        0.00691012       5.88432582       6.30120735       36      -2.00000000      -2.00000000       0.00199801       0.00026648      -0.00007681
O        0.00640969       5.88385129       1.87028231       36      -2.00000000      -2.00000000       0.00204178       0.00030890       0.00009148
40
Lattice="5.870489585003412 0.0 0.0 -0.008079908328596308 11.765286179675217 0.0 0.002978772610732963 5.862677711133064e-05 8.17254381751159" Properties=species:S:1:pos:R:3:spacegroup_kinds:I:1:field_charges:R:1:initial_charges:R:1:forces:R:3 spacegroup="P b a m" unit_cell=conventional occupancy="_JSON {\"0\": {\"Pb\": 1.0}, \"1\": {\"Pb\": 1.0}, \"2\": {\"Pb\": 1.0}, \"3\": {\"Pb\": 1.0}, \"4\": {\"Pb\": 1.0}, \"5\": {\"Pb\": 1.0}, \"6\": {\"Pb\": 1.0}, \"7\": {\"Pb\": 1.0}, \"8\": {\"Zr\": 1.0}, \"9\": {\"Zr\": 1.0}, \"10\": {\"Zr\": 1.0}, \"11\": {\"Zr\": 1.0}, \"12\": {\"Zr\": 1.0}, \"13\": {\"Zr\": 1.0}, \"14\": {\"Zr\": 1.0}, \"15\": {\"Zr\": 1.0}, \"16\": {\"O\": 1.0}, \"17\": {\"O\": 1.0}, \"18\": {\"O\": 1.0}, \"19\": {\"O\": 1.0}, \"20\": {\"O\": 1.0}, \"21\": {\"O\": 1.0}, \"22\": {\"O\": 1.0}, \"23\": {\"O\": 1.0}, \"24\": {\"O\": 1.0}, \"25\": {\"O\": 1.0}, \"26\": {\"O\": 1.0}, \"27\": {\"O\": 1.0}, \"28\": {\"O\": 1.0}, \"29\": {\"O\": 1.0}, \"30\": {\"O\": 1.0}, \"31\": {\"O\": 1.0}, \"32\": {\"O\": 1.0}, \"33\": {\"O\": 1.0}, \"34\": {\"O\": 1.0}, \"35\": {\"O\": 1.0}, \"36\": {\"O\": 1.0}, \"37\": {\"O\": 1.0}, \"38\": {\"O\": 1.0}, \"39\": {\"O\": 1.0}}" neb_image=2 energy=-39205.781682422254 polarization_c_per_m2="_JSON [0.023050630799606387, -0.024502967855298794, -0.00580514978749819]" pbc="T T T"
Pb       1.19775660       1.39465082      -0.03050155        0       2.00000000       2.00000000       0.00049002       0.00088165       0.00562141
Pb       4.70373965      10.26037926       0.02269238        0       2.00000000       2.00000000      -0.00052726       0.00357958       0.00043244
Pb       1.77203216       7.29626125       0.02236520        0       2.00000000       2.00000000      -0.00121227       0.00165410      -0.00033842
Pb       4.11802159       4.38449915      -0.03339593        0       2.00000000       2.00000000      -0.00012476       0.00296992       0.00511245
Pb       1.21458350       1.48455463       4.07096290        4       2.00000000       2.00000000       0.00212896       0.00238655       0.00521179
Pb       4.62636908      10.22552836       4.09114790        4       2.00000000       2.00000000       0.00117553       0.00165211       0.00128937
Pb       1.73816423       7.35377700       4.09119339        4       2.00000000       2.00000000      -0.00196556       0.00172465       0.00158479
Pb       4.19450236       4.32880742       4.07305223        4       2.00000000       2.00000000      -0.00034795       0.00291662       0.00319396
Zr       4.35583367       1.45055271       2.03125059        8       4.00000000       4.00000000       0.00062210       0.00069493       0.00131151
Zr       1.50900598      10.28338028       6.12808829        8       4.00000000       4.00000000       0.00076327       0.00096503       0.00059889
Zr       1.51253868      10.28957767       2.04726588        8       4.00000000       4.00000000       0.00013737       0.00019648       0.00012085
Zr       4.35367509       1.44417783       6.13294318        8       4.00000000       4.00000000       0.00087159       0.00132785       0.00089519
Zr       4.46269566       7.33007221       6.13782510        8       4.00000000       4.00000000      -0.00060677       0.00076364       0.00012614
Zr       1.43333913       4.40051330       2.04106440        8       4.00000000       4.00000000      -0.00039901       0.00042889       0.00063445
Zr       1.43053537       4.40584878       6.12424561        8       4.00000000       4.00000000      -0.00029425       0.00049719       0.00101699
Zr       4.46628599       7.32401068       2.03844811        8       4.00000000       4.00000000      -0.00111105       0.00093540       0.00029933
O        4.51939476       1.87509445      -0.00147670       16      -2.00000000      -2.00000000       0.00323636       0.00096098       0.00014505
O        1.28536536       9.93983255       0.00155403       16      -2.00000000      -2.00000000       0.00101029      -0.00210704      -0.00035262
O        4.25779229       7.74399121       0.00174953       16      -2.00000000      -2.00000000      -0.00122392       0.00004443      -0.00026396
O        1.63080251       4.04123048      -0.00110337       16      -2.00000000      -2.00000000      -0.00203176      -0.00160659      -0.00005892
O        4.67686174       1.11611177       4.08713593       20      -2.00000000      -2.00000000       0.00125156      -0.00258208      -0.00029851
O        1.14233051      10.66608896       4.08642989       20      -2.00000000      -2.00000000       0.00114476       0.00111402      -0.00036749
O        4.11694344       7.01424373       4.08645270       20      -2.00000000      -2.00000000      -0.00193516      -0.00274028      -0.00028715
O        1.77330329       4.79262145       4.08741607       20      -2.00000000      -2.00000000      -0.00000322       0.00024168      -0.00035663
O        3.10890803       3.07441678       2.31451153       24      -2.00000000      -2.00000000       0.00393551       0.00294743      -0.00255013
O        2.76421094       8.71426968       5.86854590       24      -2.00000000      -2.00000000      -0.00047066      -0.00086208      -0.00164228
O        2.73265387       8.68363045       2.29281137       24      -2.00000000      -2.00000000      -0.00035663      -0.00024129       0.00011468
O        3.15585737       3.11673121       5.88620870       24      -2.00000000      -2.00000000      -0.00333851      -0.00298945      -0.00267845
O        5.66913501       8.97528855       5.88435585       24      -2.00000000      -2.00000000       0.00125868      -0.00116264      -0.00266226
O        0.14276423       2.84944202       2.32869149       24      -2.00000000      -2.00000000       0.00543277      -0.00542554      -0.00084589
O        0.18926196       2.80573147       5.86690115       24      -2.00000000      -2.00000000      -0.00214514       0.00186110      -0.00409518
O        5.63773375       9.00514280       2.27423614       24      -2.00000000      -2.00000000       0.00129135      -0.00199106       0.00111041
O        2.94827826       5.89148531       1.65850683       32      -2.00000000      -2.00000000      -0.00223836       0.00042137      -0.00247212
O        2.91752627       5.91724631       6.51604113       32      -2.00000000      -2.00000000      -0.00025417      -0.00103584       0.00021404
O       -0.02265189       0.00712688       6.52132708       32      -2.00000000      -2.00000000       0.00210092       0.00038224      -0.00004782
O        0.01045291       0.03520671       1.65778730       32      -2.00000000      -2.00000000      -0.00296621      -0.00410076      -0.00356216
O        2.91489931       0.00989960       1.87150583       36      -2.00000000      -2.00000000      -0.00156898       0.00207841      -0.00400669
O        2.86555466       0.05649590       6.30317342       36      -2.00000000      -2.00000000       0.00412662      -0.00271781       0.00050404
O       -0.00220162       5.87055409       6.30422436       36      -2.00000000      -2.00000000      -0.00097054       0.00007654      -0.00103664
O        0.04677885       5.91761515       1.87506696       36      -2.00000000      -2.00000000      -0.00488553      -0.00414035      -0.00161448
40
Lattice="5.874446027613347 0.0 0.0 -0.006576409165980591 11.763036801690864 0.0 0.005868137401537154 0.00041162779763466797 8.177966067636408" Properties=species:S:1:pos:R:3:spacegroup_kinds:I:1:field_charges:R:1:initial_charges:R:1:forces:R:3 spacegroup="P b a m" unit_cell=conventional occupancy="_JSON {\"0\": {\"Pb\": 1.0}, \"1\": {\"Pb\": 1.0}, \"2\": {\"Pb\": 1.0}, \"3\": {\"Pb\": 1.0}, \"4\": {\"Pb\": 1.0}, \"5\": {\"Pb\": 1.0}, \"6\": {\"Pb\": 1.0}, \"7\": {\"Pb\": 1.0}, \"8\": {\"Zr\": 1.0}, \"9\": {\"Zr\": 1.0}, \"10\": {\"Zr\": 1.0}, \"11\": {\"Zr\": 1.0}, \"12\": {\"Zr\": 1.0}, \"13\": {\"Zr\": 1.0}, \"14\": {\"Zr\": 1.0}, \"15\": {\"Zr\": 1.0}, \"16\": {\"O\": 1.0}, \"17\": {\"O\": 1.0}, \"18\": {\"O\": 1.0}, \"19\": {\"O\": 1.0}, \"20\": {\"O\": 1.0}, \"21\": {\"O\": 1.0}, \"22\": {\"O\": 1.0}, \"23\": {\"O\": 1.0}, \"24\": {\"O\": 1.0}, \"25\": {\"O\": 1.0}, \"26\": {\"O\": 1.0}, \"27\": {\"O\": 1.0}, \"28\": {\"O\": 1.0}, \"29\": {\"O\": 1.0}, \"30\": {\"O\": 1.0}, \"31\": {\"O\": 1.0}, \"32\": {\"O\": 1.0}, \"33\": {\"O\": 1.0}, \"34\": {\"O\": 1.0}, \"35\": {\"O\": 1.0}, \"36\": {\"O\": 1.0}, \"37\": {\"O\": 1.0}, \"38\": {\"O\": 1.0}, \"39\": {\"O\": 1.0}}" neb_image=3 energy=-39205.771956144585 polarization_c_per_m2="_JSON [0.02230607920164556, -0.04478854042409063, -0.02861364106092028]" pbc="T T T"
Pb       1.19516550       1.38782893      -0.06617022        0       2.00000000       2.00000000       0.00073033       0.00085837       0.02208004
Pb       4.71187491      10.23434996       0.01763851        0       2.00000000       2.00000000      -0.00161817       0.01767013       0.01587691
Pb       1.78266410       7.28350328       0.02206528        0       2.00000000       2.00000000      -0.00574212       0.00884325       0.00740481
Pb       4.12170111       4.36298207      -0.06572213        0       2.00000000       2.00000000      -0.00175359       0.01747582       0.01731354
Pb       1.20245434       1.46845668       4.03953732        4       2.00000000       2.00000000       0.00752084       0.01709076       0.03089353
Pb       4.62431981      10.21210487       4.08418370        4       2.00000000       2.00000000       0.00453335       0.01085371       0.00987483
Pb       1.75538610       7.34083975       4.08191815        4       2.00000000       2.00000000      -0.01048554       0.00978832       0.01293536
Pb       4.20205025       4.30864308       4.05476789        4       2.00000000       2.00000000      -0.00155551       0.01614297       0.01151582
Zr       4.35508600       1.44544126       2.02402684        8       4.00000000       4.00000000       0.00298036       0.00399017       0.00557123
Zr       1.50840553      10.27526803       6.12782147        8       4.00000000       4.00000000       0.00160320       0.00324962       0.00383006
Zr       1.51444190      10.28612846       2.04760875        8       4.00000000       4.00000000       0.00121491       0.00239389       0.00240761
Zr       4.35310311       1.43535288       6.13124080        8       4.00000000       4.00000000       0.00234359       0.00505223       0.00404886
Zr       4.47328139       7.32334201       6.14076939        8       4.00000000       4.00000000      -0.00328310       0.00531432       0.00176418
Zr       1.43814867       4.39703074       2.03837800        8       4.00000000       4.00000000      -0.00088040       0.00086068       0.00231643
Zr       1.43654932       4.40156796       6.12157651        8       4.00000000       4.00000000      -0.00103394       0.00352876       0.00397528
Zr       4.47846235       7.31646796       2.03736258        8       4.00000000       4.00000000      -0.00414842       0.00359822       0.00251324
O        4.50109009       1.86852645      -0.00231085       16      -2.00000000      -2.00000000       0.01704127       0.00608243      -0.00017862
O        1.28024995       9.95203739       0.00378823       16      -2.00000000      -2.00000000       0.00532247      -0.01175434      -0.00148555
O        4.27015694       7.74210866       0.00335308       16      -2.00000000      -2.00000000      -0.00421862       0.00104751      -0.00074705
O        1.64642980       4.05130148      -0.00056396       16      -2.00000000      -2.00000000      -0.01087863      -0.01000829      -0.00119801
O        4.67302705       1.13341827       4.09186640       20      -2.00000000      -2.00000000       0.00656596      -0.02003346      -0.00174038
O        1.13800352      10.65709391       4.09166147       20      -2.00000000      -2.00000000       0.00366850       0.00560731      -0.00220335
O        4.13506070       7.03138901       4.09113797       20      -2.00000000      -2.00000000      -0.01024036      -0.01529981      -0.00166884
O        1.77718020       4.78997655       4.09256855       20      -2.00000000      -2.00000000       0.00135638       0.00408632      -0.00182648
O        3.08785908       3.05626936       2.33196035       24      -2.00000000      -2.00000000       0.01015542       0.00557675      -0.00626131
O        2.77072306       8.71710828       5.88428622       24      -2.00000000      -2.00000000       0.00034651      -0.00153004      -0.01040730
O        2.74123983       8.68619648       2.29458551       24      -2.00000000      -2.00000000      -0.00940488      -0.00923323      -0.00292231
O        3.18238340       3.13580138       5.90796764       24      -2.00000000      -2.00000000      -0.00918585      -0.00869432      -0.01242491
O        5.66593063       8.98321913       5.90673411       24      -2.00000000      -2.00000000       0.00919973      -0.00875786      -0.01659047
O        0.10921496       2.88374221       2.33553211       24      -2.00000000      -2.00000000       0.01675845      -0.01721812       0.00352185
O        0.20538221       2.79394017       5.89768030       24      -2.00000000      -2.00000000      -0.00294374       0.00260019      -0.02548294
O        5.63685540       9.01505818       2.26949692       24      -2.00000000      -2.00000000      -0.00159739      -0.00215747       0.00098875
O        2.96479907       5.88940663       1.67650832       32      -2.00000000      -2.00000000       0.00079832      -0.00778112      -0.01695818
O        2.92563074       5.92248206       6.51919257       32      -2.00000000      -2.00000000      -0.00345546      -0.00324563       0.00244692
O       -0.03372186       0.00561556       6.52620775       32      -2.00000000      -2.00000000       0.00613947      -0.00068281       0.00087224
O        0.02855337       0.06109650       1.68237158       32      -2.00000000      -2.00000000      -0.01060415      -0.01720601      -0.02417544
O        2.92464237      -0.00085134       1.89926734       36      -2.00000000      -2.00000000       0.00172162       0.00057599      -0.02360034
O        2.84316225       0.07374449       6.30443346       36      -2.00000000      -2.00000000       0.01205552      -0.00656074      -0.00002232
O        0.00968707       5.87110293       6.31515834       36      -2.00000000      -2.00000000      -0.00915075      -0.00421204      -0.00457335
O        0.07890910       5.94215637       1.88757050       36      -2.00000000      -2.00000000      -0.00987561      -0.00791241      -0.00768434
40