40
Lattice="5.871972 0.0 0.0 0.0 11.774171 0.0 0.0 0.0 8.178836" Properties=species:S:1:pos:R:3:spacegroup_kinds:I:1:field_charges:R:1:initial_charges:R:1:forces:R:3 spacegroup="P b a m" unit_cell=conventional occupancy="_JSON {\"0\": {\"Pb\": 1.0}, \"1\": {\"Pb\": 1.0}, \"2\": {\"Pb\": 1.0}, \"3\": {\"Pb\": 1.0}, \"4\": {\"Pb\": 1.0}, \"5\": {\"Pb\": 1.0}, \"6\": {\"Pb\": 1.0}, \"7\": {\"Pb\": 1.0}, \"8\": {\"Zr\": 1.0}, \"9\": {\"Zr\": 1.0}, \"10\": {\"Zr\": 1.0}, \"11\": {\"Zr\": 1.0}, \"12\": {\"Zr\": 1.0}, \"13\": {\"Zr\": 1.0}, \"14\": {\"Zr\": 1.0}, \"15\": {\"Zr\": 1.0}, \"16\": {\"O\": 1.0}, \"17\": {\"O\": 1.0}, \"18\": {\"O\": 1.0}, \"19\": {\"O\": 1.0}, \"20\": {\"O\": 1.0}, \"21\": {\"O\": 1.0}, \"22\": {\"O\": 1.0}, \"23\": {\"O\": 1.0}, \"24\": {\"O\": 1.0}, \"25\": {\"O\": 1.0}, \"26\": {\"O\": 1.0}, \"27\": {\"O\": 1.0}, \"28\": {\"O\": 1.0}, \"29\": {\"O\": 1.0}, \"30\": {\"O\": 1.0}, \"31\": {\"O\": 1.0}, \"32\": {\"O\": 1.0}, \"33\": {\"O\": 1.0}, \"34\": {\"O\": 1.0}, \"35\": {\"O\": 1.0}, \"36\": {\"O\": 1.0}, \"37\": {\"O\": 1.0}, \"38\": {\"O\": 1.0}, \"39\": {\"O\": 1.0}}" neb_image=0 energy=-39205.764739708866 polarization_c_per_m2="_JSON [-0.0012611573750599988, 0.0349032942069816, -1.3526432333244794e-15]" pbc="T T T"
Pb       1.17373646       1.45287285      -0.00000000        0       2.00000000       2.00000000       0.01811033      -0.02203254      -0.00000000
Pb       4.69823554      10.32129815      -0.00000000        0       2.00000000       2.00000000       0.02886545      -0.02506414      -0.00000000
Pb       1.76224954       7.33995835      -0.00000000        0       2.00000000       2.00000000       0.02886545      -0.02203254      -0.00000000
Pb       4.10972246       4.43421265      -0.00000000        0       2.00000000       2.00000000       0.01811033      -0.02506414      -0.00000000
Pb       1.22777814       1.51267559       4.08941800        4       2.00000000       2.00000000       0.01833476      -0.01928032       0.00000000
Pb       4.64419386      10.26149541       4.08941800        4       2.00000000       2.00000000       0.02864101      -0.02781637       0.00000000
Pb       1.70820786       7.39976109       4.08941800        4       2.00000000       2.00000000       0.02864101      -0.01928032       0.00000000
Pb       4.16376414       4.37440991       4.08941800        4       2.00000000       2.00000000       0.01833476      -0.02781637       0.00000000
Zr       4.35630128       1.46381254       2.04209901        8       4.00000000       4.00000000       0.04074979      -0.05115421       0.00128299
Zr       1.51567072      10.31035846       6.13673699        8       4.00000000       4.00000000       0.05320176      -0.04303916      -0.00128299
Zr       1.51567072      10.31035846       2.04209901        8       4.00000000       4.00000000       0.05320176      -0.04303916       0.00128299
Zr       4.35630128       1.46381254       6.13673699        8       4.00000000       4.00000000       0.04074979      -0.05115421      -0.00128299
Zr       4.45165672       7.35089804       6.13673699        8       4.00000000       4.00000000       0.05320176      -0.05115421      -0.00128299
Zr       1.42031528       4.42327296       2.04209901        8       4.00000000       4.00000000       0.04074979      -0.04303916       0.00128299
Zr       1.42031528       4.42327296       6.13673699        8       4.00000000       4.00000000       0.04074979      -0.04303916      -0.00128299
Zr       4.45165672       7.35089804       2.04209901        8       4.00000000       4.00000000       0.05320176      -0.05115421       0.00128299
O        4.55672239       1.85661981      -0.00000000       16      -2.00000000      -2.00000000      -0.01967453       0.01834648       0.00000000
O        1.31524961       9.91755119      -0.00000000       16      -2.00000000      -2.00000000      -0.02730124       0.02875020       0.00000000
O        4.25123561       7.74370531      -0.00000000       16      -2.00000000      -2.00000000      -0.02730124       0.01834648       0.00000000
O        1.62073639       4.03046569      -0.00000000       16      -2.00000000      -2.00000000      -0.01967453       0.02875020       0.00000000
O        4.70256932       1.10550087       4.08941800       20      -2.00000000      -2.00000000      -0.01760133       0.03098644      -0.00000000
O        1.16940268      10.66867013       4.08941800       20      -2.00000000      -2.00000000      -0.02937445       0.01611025      -0.00000000
O        4.10538868       6.99258637       4.08941800       20      -2.00000000      -2.00000000      -0.02937445       0.03098644      -0.00000000
O        1.76658332       4.78158463       4.08941800       20      -2.00000000      -2.00000000      -0.01760133       0.01611025      -0.00000000
O        3.12999853       3.08379167       2.30409508       24      -2.00000000      -2.00000000      -0.03345472       0.03894801      -0.00556508
O        2.74197347       8.69037933       5.87474092       24      -2.00000000      -2.00000000      -0.01352106       0.00814867       0.00556508
O        2.74197347       8.69037933       2.30409508       24      -2.00000000      -2.00000000      -0.01352106       0.00814867      -0.00556508
O        3.12999853       3.08379167       5.87474092       24      -2.00000000      -2.00000000      -0.03345472       0.03894801       0.00556508
O        5.67795947       8.97087717       5.87474092       24      -2.00000000      -2.00000000      -0.01352106       0.03894801       0.00556508
O        0.19401253       2.80329383       2.30409508       24      -2.00000000      -2.00000000      -0.03345472       0.00814867      -0.00556508
O        0.19401253       2.80329383       5.87474092       24      -2.00000000      -2.00000000      -0.03345472       0.00814867       0.00556508
O        5.67795947       8.97087717       2.30409508       24      -2.00000000      -2.00000000      -0.01352106       0.03894801      -0.00556508
O        2.93598600       5.88708550       1.65175084       32      -2.00000000      -2.00000000      -0.02348789       0.02354834       0.00096873
O        2.93598600       5.88708550       6.52708516       32      -2.00000000      -2.00000000      -0.02348789       0.02354834      -0.00096873
O        0.00000000       0.00000000       6.52708516       32      -2.00000000      -2.00000000      -0.02348789       0.02354834      -0.00096873
O       -0.00000000       0.00000000       1.65175084       32      -2.00000000      -2.00000000      -0.02348789       0.02354834       0.00096873
O        2.93598600       0.00000000       1.87160782       36      -2.00000000      -2.00000000      -0.02348789       0.02354834       0.00119428
O        2.93598600       0.00000000       6.30722818       36      -2.00000000      -2.00000000      -0.02348789       0.02354834      -0.00119428
O        0.00000000       5.88708550       6.30722818       36      -2.00000000      -2.00000000      -0.02348789       0.02354834      -0.00119428
O        0.00000000       5.88708550       1.87160782       36      -2.00000000      -2.00000000      -0.02348789       0.02354834       0.00119428
40
Lattice="5.869492701134355 0.0 0.0 -0.0047133194321955065 11.765891708545661 0.0 7.211524966538033e-06 2.22686411143344e-07 8.17154512630664" Properties=species:S:1:pos:R:3:spacegroup_kinds:I:1:field_charges:R:1:initial_charges:R:1:forces:R:3 spacegroup="P b a m" unit_cell=conventional occupancy="_JSON {\"0\": {\"Pb\": 1.0}, \"1\": {\"Pb\": 1.0}, \"2\": {\"Pb\": 1.0}, \"3\": {\"Pb\": 1.0}, \"4\": {\"Pb\": 1.0}, \"5\": {\"Pb\": 1.0}, \"6\": {\"Pb\": 1.0}, \"7\": {\"Pb\": 1.0}, \"8\": {\"Zr\": 1.0}, \"9\": {\"Zr\": 1.0}, \"10\": {\"Zr\": 1.0}, \"11\": {\"Zr\": 1.0}, \"12\": {\"Zr\": 1.0}, \"13\": {\"Zr\": 1.0}, \"14\": {\"Zr\": 1.0}, \"15\": {\"Zr\": 1.0}, \"16\": {\"O\": 1.0}, \"17\": {\"O\": 1.0}, \"18\": {\"O\": 1.0}, \"19\": {\"O\": 1.0}, \"20\": {\"O\": 1.0}, \"21\": {\"O\": 1.0}, \"22\": {\"O\": 1.0}, \"23\": {\"O\": 1.0}, \"24\": {\"O\": 1.0}, \"25\": {\"O\": 1.0}, \"26\": {\"O\": 1.0}, \"27\": {\"O\": 1.0}, \"28\": {\"O\": 1.0}, \"29\": {\"O\": 1.0}, \"30\": {\"O\": 1.0}, \"31\": {\"O\": 1.0}, \"32\": {\"O\": 1.0}, \"33\": {\"O\": 1.0}, \"34\": {\"O\": 1.0}, \"35\": {\"O\": 1.0}, \"36\": {\"O\": 1.0}, \"37\": {\"O\": 1.0}, \"38\": {\"O\": 1.0}, \"39\": {\"O\": 1.0}}" neb_image=1 energy=-39205.78198732701 polarization_c_per_m2="_JSON [0.02017795236074746, -0.006979992542023632, -1.5878392369565915e-07]" pbc="T T T"
Pb       1.19170833       1.41345394      -0.00006750        0       2.00000000       2.00000000       0.00428199      -0.00864286       0.00000510
Pb       4.70487055      10.27855721       0.00007066        0       2.00000000       2.00000000       0.00286130      -0.00798296      -0.00000866
Pb       1.76980648       7.30690618       0.00006853        0       2.00000000       2.00000000       0.00252771      -0.00628913      -0.00000819
Pb       4.11711128       4.39897018      -0.00007385        0       2.00000000       2.00000000       0.00244745      -0.00725004       0.00000542
Pb       1.22263306       1.49273280       4.08575015        4       2.00000000       2.00000000      -0.00091160      -0.00425849      -0.00000046
Pb       4.63392384      10.23416250       4.08579496        4       2.00000000       2.00000000      -0.00094889      -0.00454146      -0.00000345
Pb       1.72844051       7.36611320       4.08579617        4       2.00000000       2.00000000       0.00539027      -0.00640123      -0.00000349
Pb       4.18540542       4.34270740       4.08575067        4       2.00000000       2.00000000       0.00566055      -0.00644047       0.00000027
Zr       4.35586105       1.45182457       2.03682070        8       4.00000000       4.00000000       0.00043760      -0.00247000      -0.00077645
Zr       1.51441016      10.29145247       6.12769026        8       4.00000000       4.00000000       0.00078492      -0.00262185      -0.00080788
Zr       1.51441857      10.29146789       2.04386742        8       4.00000000       4.00000000       0.00078378      -0.00262338       0.00080580
Zr       4.35585308       1.45180801       6.13471062        8       4.00000000       4.00000000       0.00043913      -0.00246823       0.00077638
Zr       4.45928474       7.33214758       6.13420376        8       4.00000000       4.00000000       0.00280563      -0.00306296       0.00066080
Zr       1.42813977       4.40711203       2.04318786        8       4.00000000       4.00000000       0.00229172      -0.00293636       0.00065775
Zr       1.42813007       4.40712882       6.12834424        8       4.00000000       4.00000000       0.00229337      -0.00293847      -0.00065720
Zr       4.45929382       7.33213047       2.03735503        8       4.00000000       4.00000000       0.00280448      -0.00306095      -0.00066237
O        4.53373035       1.87309097      -0.00000372       16      -2.00000000      -2.00000000      -0.00458880       0.00399705       0.00000025
O        1.29467610       9.93159091       0.00000319       16      -2.00000000      -2.00000000      -0.00361659       0.00473007      -0.00000024
O        4.25040638       7.74400206       0.00000366       16      -2.00000000      -2.00000000       0.00092626       0.00129042      -0.00000013
O        1.62323795       4.03698140      -0.00000364       16      -2.00000000      -2.00000000       0.00109212       0.00210874       0.00000048
O        4.68372021       1.11443568       4.08577403       20      -2.00000000      -2.00000000      -0.00370149       0.00219925      -0.00000008
O        1.14951438      10.66882247       4.08577122       20      -2.00000000      -2.00000000      -0.00340276       0.00173374       0.00000041
O        4.10824313       7.00360235       4.08577129       20      -2.00000000      -2.00000000       0.00167114       0.00358073       0.00000044
O        1.76970451       4.78882908       4.08577412       20      -2.00000000      -2.00000000       0.00130264       0.00237556       0.00000002
O        3.13206756       3.09457171       2.29830295       24      -2.00000000      -2.00000000       0.00106773       0.00294174      -0.00085880
O        2.74594554       8.69556974       5.86941077       24      -2.00000000      -2.00000000       0.00193958       0.00254691      -0.00002113
O        2.74584584       8.69547585       2.30208851       24      -2.00000000      -2.00000000       0.00195122       0.00255749       0.00002849
O        3.13216686       3.09466611       5.87329755       24      -2.00000000      -2.00000000       0.00106164       0.00293474       0.00085624
O        5.66047444       8.98148290       5.88277858       24      -2.00000000      -2.00000000      -0.00259007       0.00381008       0.00298316
O        0.17646190       2.81625617       2.31251658       24      -2.00000000      -2.00000000      -0.00365733       0.00333901       0.00233457
O        0.17655959       2.81616288       5.85907521       24      -2.00000000      -2.00000000      -0.00366330       0.00334486      -0.00233779
O        5.66037534       8.98157387       2.28871535       24      -2.00000000      -2.00000000      -0.00257838       0.00379923      -0.00297617
O        2.92634484       5.90221756       1.65374599       32      -2.00000000      -2.00000000      -0.00138049       0.00436058       0.00078868
O        2.92626089       5.90228754       6.51779430       32      -2.00000000      -2.00000000      -0.00137162       0.00435374      -0.00078735
O       -0.00715591       0.01280693       6.52020298       32      -2.00000000      -2.00000000      -0.00161861       0.00287975      -0.00023958
O       -0.00707515       0.01287361       1.65134487       32      -2.00000000      -2.00000000      -0.00162584       0.00287442       0.00024185
O        2.90107556       0.02585210       1.86865199       36      -2.00000000      -2.00000000      -0.00762280       0.00585807      -0.00028922
O        2.90094918       0.02597209       6.30288783       36      -2.00000000      -2.00000000      -0.00761047       0.00584674       0.00029056
O        0.00659683       5.88406655       6.30124883       36      -2.00000000      -2.00000000       0.00204011       0.00026881      -0.00008139
O        0.00672718       5.88418853       1.87029988       36      -2.00000000      -2.00000000       0.00202672       0.00025712       0.00008338
40
Lattice="5.869988980923056 0.0 0.0 -0.007761363175494044 11.7652344537141 0.0 0.0028829042978847324 0.0001117642674237872 8.172359466233193" Properties=species:S:1:pos:R:3:spacegroup_kinds:I:1:field_charges:R:1:initial_charges:R:1:forces:R:3 spacegroup="P b a m" unit_cell=conventional occupancy="_JSON {\"0\": {\"Pb\": 1.0}, \"1\": {\"Pb\": 1.0}, \"2\": {\"Pb\": 1.0}, \"3\": {\"Pb\": 1.0}, \"4\": {\"Pb\": 1.0}, \"5\": {\"Pb\": 1.0}, \"6\": {\"Pb\": 1.0}, \"7\": {\"Pb\": 1.0}, \"8\": {\"Zr\": 1.0}, \"9\": {\"Zr\": 1.0}, \"10\": {\"Zr\": 1.0}, \"11\": {\"Zr\": 1.0}, \"12\": {\"Zr\": 1.0}, \"13\": {\"Zr\": 1.0}, \"14\": {\"Zr\": 1.0}, \"15\": {\"Zr\": 1.0}, \"16\": {\"O\": 1.0}, \"17\": {\"O\": 1.0}, \"18\": {\"O\": 1.0}, \"19\": {\"O\": 1.0}, \"20\": {\"O\": 1.0}, \"21\": {\"O\": 1.0}, \"22\": {\"O\": 1.0}, \"23\": {\"O\": 1.0}, \"24\": {\"O\": 1.0}, \"25\": {\"O\": 1.0}, \"26\": {\"O\": 1.0}, \"27\": {\"O\": 1.0}, \"28\": {\"O\": 1.0}, \"29\": {\"O\": 1.0}, \"30\": {\"O\": 1.0}, \"31\": {\"O\": 1.0}, \"32\": {\"O\": 1.0}, \"33\": {\"O\": 1.0}, \"34\": {\"O\": 1.0}, \"35\": {\"O\": 1.0}, \"36\": {\"O\": 1.0}, \"37\": {\"O\": 1.0}, \"38\": {\"O\": 1.0}, \"39\": {\"O\": 1.0}}" neb_image=2 energy=-39205.78186703954 polarization_c_per_m2="_JSON [0.02321506452942071, -0.021892520275590778, -0.0033806588671108973]" pbc="T T T"
Pb       1.19753367       1.39776606      -0.03012574        0       2.00000000       2.00000000       0.00009903       0.00032611       0.00420409
Pb       4.70316377      10.26444779       0.02639646        0       2.00000000       2.00000000      -0.00024755       0.00173037      -0.00145877
Pb       1.77044496       7.29661341       0.02573816        0       2.00000000       2.00000000      -0.00039034       0.00088108      -0.00173420
Pb       4.11795758       4.38511088      -0.03319948        0       2.00000000       2.00000000      -0.00021791       0.00138283       0.00393121
Pb       1.21721778       1.48528406       4.07302001        4       2.00000000       2.00000000       0.00098562       0.00114878       0.00284141
Pb       4.62776373      10.22574034       4.09320868        4       2.00000000       2.00000000       0.00066707       0.00064025       0.00009809
Pb       1.73734272       7.35587409       4.09369850        4       2.00000000       2.00000000      -0.00089693       0.00078608       0.00002689
Pb       4.19408325       4.33239146       4.07423545        4       2.00000000       2.00000000      -0.00009845       0.00129299       0.00210704
Zr       4.35649628       1.45171300       2.03199723        8       4.00000000       4.00000000       0.00012266       0.00018929       0.00080287
Zr       1.50958605      10.28414979       6.12881604        8       4.00000000       4.00000000       0.00053320       0.00060295       0.00014380
Zr       1.51323919      10.29045089       2.04751673        8       4.00000000       4.00000000      -0.00008673      -0.00009023      -0.00011731
Zr       4.35381285       1.44502066       6.13275659        8       4.00000000       4.00000000       0.00052596       0.00079259       0.00061223
Zr       4.46131747       7.33092757       6.13835120        8       4.00000000       4.00000000      -0.00010232       0.00013725      -0.00014264
Zr       1.43315686       4.40040089       2.04116833        8       4.00000000       4.00000000      -0.00029135       0.00040773       0.00046026
Zr       1.42969336       4.40662840       6.12453181        8       4.00000000       4.00000000      -0.00003362       0.00004793       0.00062680
Zr       4.46515200       7.32424649       2.03894916        8       4.00000000       4.00000000      -0.00060748       0.00059625      -0.00005676
O        4.52137276       1.87553943      -0.00162981       16      -2.00000000      -2.00000000       0.00187951       0.00053014       0.00017316
O        1.28721349       9.93831640       0.00146649       16      -2.00000000      -2.00000000       0.00016951      -0.00106368      -0.00025286
O        4.25580371       7.74378100       0.00176615       16      -2.00000000      -2.00000000      -0.00051895      -0.00001776      -0.00024571
O        1.62880492       4.04061578      -0.00136377       16      -2.00000000      -2.00000000      -0.00089270      -0.00079278       0.00006907
O        4.67763811       1.11671777       4.08690854       20      -2.00000000      -2.00000000       0.00054163      -0.00113265      -0.00014496
O        1.14381504      10.66845302       4.08605587       20      -2.00000000      -2.00000000       0.00059725       0.00051217      -0.00013793
O        4.11563698       7.01031316       4.08616178       20      -2.00000000      -2.00000000      -0.00105606      -0.00114276      -0.00012622
O        1.77282153       4.79059466       4.08713053       20      -2.00000000      -2.00000000       0.00020738       0.00009447      -0.00016410
O        3.11140383       3.07642323       2.31163364       24      -2.00000000      -2.00000000       0.00319749       0.00267869      -0.00193002
O        2.76901817       8.71885139       5.86358322       24      -2.00000000      -2.00000000      -0.00143202      -0.00159064      -0.00008260
O        2.73209957       8.68328438       2.29416503       24      -2.00000000      -2.00000000       0.00087518       0.00098673       0.00032830
O        3.15754514       3.11898276       5.88764150       24      -2.00000000      -2.00000000      -0.00259807      -0.00244187      -0.00171437
O        5.67505582       8.96926607       5.87938587       24      -2.00000000      -2.00000000      -0.00056179       0.00050496      -0.00077975
O        0.14697822       2.84518064       2.32642610       24      -2.00000000      -2.00000000       0.00390290      -0.00382716      -0.00080333
O        0.19248400       2.80208898       5.86771245       24      -2.00000000      -2.00000000      -0.00207564       0.00194615      -0.00246414
O        5.63837624       9.00350852       2.27528870       24      -2.00000000      -2.00000000       0.00165342      -0.00195464       0.00120424
O        2.94537627       5.89259083       1.65744546       32      -2.00000000      -2.00000000      -0.00218646       0.00116454      -0.00110806
O        2.91144332       5.92098671       6.51492101       32      -2.00000000      -2.00000000       0.00094449      -0.00133693       0.00028445
O       -0.02566810       0.00340892       6.52127482       32      -2.00000000      -2.00000000       0.00189796       0.00088169      -0.00005843
O        0.00869463       0.03209525       1.65557172       32      -2.00000000      -2.00000000      -0.00254170      -0.00280972      -0.00167111
O        2.91566078       0.01003440       1.86934831       36      -2.00000000      -2.00000000      -0.00253473       0.00264696      -0.00207137
O        2.86338339       0.05966598       6.30258779       36      -2.00000000      -2.00000000       0.00340250      -0.00266610       0.00069593
O       -0.00986520       5.86411826       6.30328261       36      -2.00000000      -2.00000000       0.00105628       0.00139850      -0.00064039
O        0.04316946       5.91442476       1.87392809       36      -2.00000000      -2.00000000      -0.00388821      -0.00344057      -0.00070481
40
Lattice="5.871980777275367 0.0 0.0 -0.003652529658405533 11.762104373856214 0.0 0.005659987484235914 0.00021918261678992014 8.176599369567613" Properties=species:S:1:pos:R:3:spacegroup_kinds:I:1:field_charges:R:1:initial_charges:R:1:forces:R:3 spacegroup="P b a m" unit_cell=conventional occupancy="_JSON {\"0\": {\"Pb\": 1.0}, \"1\": {\"Pb\": 1.0}, \"2\": {\"Pb\": 1.0}, \"3\": {\"Pb\": 1.0}, \"4\": {\"Pb\": 1.0}, \"5\": {\"Pb\": 1.0}, \"6\": {\"Pb\": 1.0}, \"7\": {\"Pb\": 1.0}, \"8\": {\"Zr\": 1.0}, \"9\": {\"Zr\": 1.0}, \"10\": {\"Zr\": 1.0}, \"11\": {\"Zr\": 1.0}, \"12\": {\"Zr\": 1.0}, \"13\": {\"Zr\": 1.0}, \"14\": {\"Zr\": 1.0}, \"15\": {\"Zr\": 1.0}, \"16\": {\"O\": 1.0}, \"17\": {\"O\": 1.0}, \"18\": {\"O\": 1.0}, \"19\": {\"O\": 1.0}, \"20\": {\"O\": 1.0}, \"21\": {\"O\": 1.0}, \"22\": {\"O\": 1.0}, \"23\": {\"O\": 1.0}, \"24\": {\"O\": 1.0}, \"25\": {\"O\": 1.0}, \"26\": {\"O\": 1.0}, \"27\": {\"O\": 1.0}, \"28\": {\"O\": 1.0}, \"29\": {\"O\": 1.0}, \"30\": {\"O\": 1.0}, \"31\": {\"O\": 1.0}, \"32\": {\"O\": 1.0}, \"33\": {\"O\": 1.0}, \"34\": {\"O\": 1.0}, \"35\": {\"O\": 1.0}, \"36\": {\"O\": 1.0}, \"37\": {\"O\": 1.0}, \"38\": {\"O\": 1.0}, \"39\": {\"O\": 1.0}}" neb_image=3 energy=-39205.775849050464 polarization_c_per_m2="_JSON [0.022060923695186186, -0.034157472334759624, -0.01741869429012249]" pbc="T T T"
Pb       1.19826647       1.39195043      -0.06580384        0       2.00000000       2.00000000      -0.00060710       0.00128812       0.01589579
Pb       4.71050773      10.24372638       0.03684767        0       2.00000000       2.00000000      -0.00167774       0.01184361       0.00682556
Pb       1.77826947       7.28866723       0.03916035        0       2.00000000       2.00000000      -0.00262326       0.00744869       0.00133058
Pb       4.12303369       4.37451737      -0.06674861        0       2.00000000       2.00000000      -0.00094696       0.01076809       0.01162006
Pb       1.20909642       1.47586212       4.04997820        4       2.00000000       2.00000000       0.00550493       0.01040504       0.01852914
Pb       4.62739038      10.21935064       4.09370423        4       2.00000000       2.00000000       0.00399060       0.00582589       0.00517412
Pb       1.74845513       7.34562636       4.09464827        4       2.00000000       2.00000000      -0.00680717       0.00519451       0.00471585
Pb       4.19860827       4.31719276       4.05798444        4       2.00000000       2.00000000      -0.00058425       0.00989703       0.00843429
Zr       4.35769544       1.44899349       2.02562189        8       4.00000000       4.00000000       0.00156757       0.00266643       0.00398865
Zr       1.51097031      10.27581584       6.13040500        8       4.00000000       4.00000000       0.00158041       0.00221693       0.00224721
Zr       1.51836009      10.28778034       2.04946010        8       4.00000000       4.00000000       0.00050771       0.00129535       0.00092945
Zr       4.35325570       1.43757267       6.13101438        8       4.00000000       4.00000000       0.00179691       0.00333477       0.00269844
Zr       4.46893033       7.32787811       6.14218703        8       4.00000000       4.00000000      -0.00188001       0.00305513       0.00043590
Zr       1.43854996       4.39610371       2.03815975        8       4.00000000       4.00000000      -0.00038840       0.00100655       0.00148782
Zr       1.43450029       4.40499844       6.12229543        8       4.00000000       4.00000000      -0.00062981       0.00224039       0.00277914
Zr       4.47562255       7.31744013       2.04054185        8       4.00000000       4.00000000      -0.00267629       0.00233584       0.00106330
O        4.50671679       1.87014686      -0.00298228       16      -2.00000000      -2.00000000       0.01275108       0.00388489       0.00016463
O        1.28831091       9.94539417       0.00371015       16      -2.00000000      -2.00000000       0.00200235      -0.00779141      -0.00108690
O        4.26605951       7.74213411       0.00390109       16      -2.00000000      -2.00000000      -0.00201340      -0.00030704      -0.00070777
O        1.63895663       4.04596565      -0.00181217       16      -2.00000000      -2.00000000      -0.00688315      -0.00605748      -0.00044316
O        4.67574007       1.12351405       4.09024783       20      -2.00000000      -2.00000000       0.00371771      -0.01104738      -0.00096896
O        1.14357349      10.65800905       4.08944149       20      -2.00000000      -2.00000000       0.00341879       0.00316773      -0.00126937
O        4.12972569       7.02237560       4.08937286       20      -2.00000000      -2.00000000      -0.00723660      -0.00799694      -0.00099503
O        1.77470709       4.79205699       4.09065257       20      -2.00000000      -2.00000000       0.00154506       0.00194022      -0.00089970
O        3.08283319       3.04877562       2.33333323       24      -2.00000000      -2.00000000       0.00922614       0.00617965      -0.00534058
O        2.78194116       8.72484108       5.87259207       24      -2.00000000      -2.00000000      -0.00197698      -0.00329601      -0.00342978
O        2.72612346       8.66906502       2.28858426       24      -2.00000000      -2.00000000      -0.00383748      -0.00327997      -0.00276775
O        3.17967292       3.13478317       5.90169685       24      -2.00000000      -2.00000000      -0.00742248      -0.00720579      -0.00754939
O        5.68126215       8.96824644       5.89322149       24      -2.00000000      -2.00000000       0.00430796      -0.00431425      -0.01033478
O        0.11100586       2.88184385       2.33781994       24      -2.00000000      -2.00000000       0.01398194      -0.01409791       0.00148808
O        0.20860192       2.78975209       5.88846899       24      -2.00000000      -2.00000000      -0.00372276       0.00355496      -0.01534910
O        5.62671622       9.02136601       2.26387819       24      -2.00000000      -2.00000000       0.00150766      -0.00393270       0.00272825
O        2.97288000       5.87705595       1.66704965       32      -2.00000000      -2.00000000      -0.00297418      -0.00177025      -0.00867883
O        2.91514447       5.92586019       6.51726525       32      -2.00000000      -2.00000000      -0.00030698      -0.00375831       0.00190070
O       -0.03512026       0.00038462       6.52459728       32      -2.00000000      -2.00000000       0.00494460       0.00013156       0.00015567
O        0.03487670       0.06011058       1.67216525       32      -2.00000000      -2.00000000      -0.00980954      -0.01352253      -0.01406009
O        2.94138075      -0.01582261       1.88874976       36      -2.00000000      -2.00000000      -0.00337592       0.00470599      -0.01551084
O        2.84147585       0.07777485       6.30043419       36      -2.00000000      -2.00000000       0.01001119      -0.00644075       0.00176596
O       -0.00781055       5.85715095       6.31224446       36      -2.00000000      -2.00000000      -0.00396389      -0.00093306      -0.00411657
O        0.08418201       5.94712490       1.88150104       36      -2.00000000      -2.00000000      -0.01001826      -0.00863555      -0.00285004
40