40
Lattice="5.871972 0.0 0.0 0.0 11.774171 0.0 0.0 0.0 8.178836" Properties=species:S:1:pos:R:3:spacegroup_kinds:I:1:field_charges:R:1:initial_charges:R:1:forces:R:3 spacegroup="P b a m" unit_cell=conventional occupancy="_JSON {\"0\": {\"Pb\": 1.0}, \"1\": {\"Pb\": 1.0}, \"2\": {\"Pb\": 1.0}, \"3\": {\"Pb\": 1.0}, \"4\": {\"Pb\": 1.0}, \"5\": {\"Pb\": 1.0}, \"6\": {\"Pb\": 1.0}, \"7\": {\"Pb\": 1.0}, \"8\": {\"Zr\": 1.0}, \"9\": {\"Zr\": 1.0}, \"10\": {\"Zr\": 1.0}, \"11\": {\"Zr\": 1.0}, \"12\": {\"Zr\": 1.0}, \"13\": {\"Zr\": 1.0}, \"14\": {\"Zr\": 1.0}, \"15\": {\"Zr\": 1.0}, \"16\": {\"O\": 1.0}, \"17\": {\"O\": 1.0}, \"18\": {\"O\": 1.0}, \"19\": {\"O\": 1.0}, \"20\": {\"O\": 1.0}, \"21\": {\"O\": 1.0}, \"22\": {\"O\": 1.0}, \"23\": {\"O\": 1.0}, \"24\": {\"O\": 1.0}, \"25\": {\"O\": 1.0}, \"26\": {\"O\": 1.0}, \"27\": {\"O\": 1.0}, \"28\": {\"O\": 1.0}, \"29\": {\"O\": 1.0}, \"30\": {\"O\": 1.0}, \"31\": {\"O\": 1.0}, \"32\": {\"O\": 1.0}, \"33\": {\"O\": 1.0}, \"34\": {\"O\": 1.0}, \"35\": {\"O\": 1.0}, \"36\": {\"O\": 1.0}, \"37\": {\"O\": 1.0}, \"38\": {\"O\": 1.0}, \"39\": {\"O\": 1.0}}" neb_image=0 energy=-39205.764739708866 polarization_c_per_m2="_JSON [-0.0012611573750599988, 0.0349032942069816, -1.3526432333244794e-15]" pbc="T T T"
Pb       1.17373646       1.45287285      -0.00000000        0       2.00000000       2.00000000       0.01811033      -0.02203254      -0.00000000
Pb       4.69823554      10.32129815      -0.00000000        0       2.00000000       2.00000000       0.02886545      -0.02506414      -0.00000000
Pb       1.76224954       7.33995835      -0.00000000        0       2.00000000       2.00000000       0.02886545      -0.02203254      -0.00000000
Pb       4.10972246       4.43421265      -0.00000000        0       2.00000000       2.00000000       0.01811033      -0.02506414      -0.00000000
Pb       1.22777814       1.51267559       4.08941800        4       2.00000000       2.00000000       0.01833476      -0.01928032       0.00000000
Pb       4.64419386      10.26149541       4.08941800        4       2.00000000       2.00000000       0.02864101      -0.02781637       0.00000000
Pb       1.70820786       7.39976109       4.08941800        4       2.00000000       2.00000000       0.02864101      -0.01928032       0.00000000
Pb       4.16376414       4.37440991       4.08941800        4       2.00000000       2.00000000       0.01833476      -0.02781637       0.00000000
Zr       4.35630128       1.46381254       2.04209901        8       4.00000000       4.00000000       0.04074979      -0.05115421       0.00128299
Zr       1.51567072      10.31035846       6.13673699        8       4.00000000       4.00000000       0.05320176      -0.04303916      -0.00128299
Zr       1.51567072      10.31035846       2.04209901        8       4.00000000       4.00000000       0.05320176      -0.04303916       0.00128299
Zr       4.35630128       1.46381254       6.13673699        8       4.00000000       4.00000000       0.04074979      -0.05115421      -0.00128299
Zr       4.45165672       7.35089804       6.13673699        8       4.00000000       4.00000000       0.05320176      -0.05115421      -0.00128299
Zr       1.42031528       4.42327296       2.04209901        8       4.00000000       4.00000000       0.04074979      -0.04303916       0.00128299
Zr       1.42031528       4.42327296       6.13673699        8       4.00000000       4.00000000       0.04074979      -0.04303916      -0.00128299
Zr       4.45165672       7.35089804       2.04209901        8       4.00000000       4.00000000       0.05320176      -0.05115421       0.00128299
O        4.55672239       1.85661981      -0.00000000       16      -2.00000000      -2.00000000      -0.01967453       0.01834648       0.00000000
O        1.31524961       9.91755119      -0.00000000       16      -2.00000000      -2.00000000      -0.02730124       0.02875020       0.00000000
O        4.25123561       7.74370531      -0.00000000       16      -2.00000000      -2.00000000      -0.02730124       0.01834648       0.00000000
O        1.62073639       4.03046569      -0.00000000       16      -2.00000000      -2.00000000      -0.01967453       0.02875020       0.00000000
O        4.70256932       1.10550087       4.08941800       20      -2.00000000      -2.00000000      -0.01760133       0.03098644      -0.00000000
O        1.16940268      10.66867013       4.08941800       20      -2.00000000      -2.00000000      -0.02937445       0.01611025      -0.00000000
O        4.10538868       6.99258637       4.08941800       20      -2.00000000      -2.00000000      -0.02937445       0.03098644      -0.00000000
O        1.76658332       4.78158463       4.08941800       20      -2.00000000      -2.00000000      -0.01760133       0.01611025      -0.00000000
O        3.12999853       3.08379167       2.30409508       24      -2.00000000      -2.00000000      -0.03345472       0.03894801      -0.00556508
O        2.74197347       8.69037933       5.87474092       24      -2.00000000      -2.00000000      -0.01352106       0.00814867       0.00556508
O        2.74197347       8.69037933       2.30409508       24      -2.00000000      -2.00000000      -0.01352106       0.00814867      -0.00556508
O        3.12999853       3.08379167       5.87474092       24      -2.00000000      -2.00000000      -0.03345472       0.03894801       0.00556508
O        5.67795947       8.97087717       5.87474092       24      -2.00000000      -2.00000000      -0.01352106       0.03894801       0.00556508
O        0.19401253       2.80329383       2.30409508       24      -2.00000000      -2.00000000      -0.03345472       0.00814867      -0.00556508
O        0.19401253       2.80329383       5.87474092       24      -2.00000000      -2.00000000      -0.03345472       0.00814867       0.00556508
O        5.67795947       8.97087717       2.30409508       24      -2.00000000      -2.00000000      -0.01352106       0.03894801      -0.00556508
O        2.93598600       5.88708550       1.65175084       32      -2.00000000      -2.00000000      -0.02348789       0.02354834       0.00096873
O        2.93598600       5.88708550       6.52708516       32      -2.00000000      -2.00000000      -0.02348789       0.02354834      -0.00096873
O        0.00000000       0.00000000       6.52708516       32      -2.00000000      -2.00000000      -0.02348789       0.02354834      -0.00096873
O       -0.00000000       0.00000000       1.65175084       32      -2.00000000      -2.00000000      -0.02348789       0.02354834       0.00096873
O        2.93598600       0.00000000       1.87160782       36      -2.00000000      -2.00000000      -0.02348789       0.02354834       0.00119428
O        2.93598600       0.00000000       6.30722818       36      -2.00000000      -2.00000000      -0.02348789       0.02354834      -0.00119428
O        0.00000000       5.88708550       6.30722818       36      -2.00000000      -2.00000000      -0.02348789       0.02354834      -0.00119428
O        0.00000000       5.88708550       1.87160782       36      -2.00000000      -2.00000000      -0.02348789       0.02354834       0.00119428
40
Lattice="5.869493196302974 0.0 0.0 -0.004751261049846978 11.765891602903691 0.0 -1.9436604042341795e-05 -4.134821903180901e-07 8.171536427261064" Properties=species:S:1:pos:R:3:spacegroup_kinds:I:1:field_charges:R:1:initial_charges:R:1:forces:R:3 spacegroup="P b a m" unit_cell=conventional occupancy="_JSON {\"0\": {\"Pb\": 1.0}, \"1\": {\"Pb\": 1.0}, \"2\": {\"Pb\": 1.0}, \"3\": {\"Pb\": 1.0}, \"4\": {\"Pb\": 1.0}, \"5\": {\"Pb\": 1.0}, \"6\": {\"Pb\": 1.0}, \"7\": {\"Pb\": 1.0}, \"8\": {\"Zr\": 1.0}, \"9\": {\"Zr\": 1.0}, \"10\": {\"Zr\": 1.0}, \"11\": {\"Zr\": 1.0}, \"12\": {\"Zr\": 1.0}, \"13\": {\"Zr\": 1.0}, \"14\": {\"Zr\": 1.0}, \"15\": {\"Zr\": 1.0}, \"16\": {\"O\": 1.0}, \"17\": {\"O\": 1.0}, \"18\": {\"O\": 1.0}, \"19\": {\"O\": 1.0}, \"20\": {\"O\": 1.0}, \"21\": {\"O\": 1.0}, \"22\": {\"O\": 1.0}, \"23\": {\"O\": 1.0}, \"24\": {\"O\": 1.0}, \"25\": {\"O\": 1.0}, \"26\": {\"O\": 1.0}, \"27\": {\"O\": 1.0}, \"28\": {\"O\": 1.0}, \"29\": {\"O\": 1.0}, \"30\": {\"O\": 1.0}, \"31\": {\"O\": 1.0}, \"32\": {\"O\": 1.0}, \"33\": {\"O\": 1.0}, \"34\": {\"O\": 1.0}, \"35\": {\"O\": 1.0}, \"36\": {\"O\": 1.0}, \"37\": {\"O\": 1.0}, \"38\": {\"O\": 1.0}, \"39\": {\"O\": 1.0}}" neb_image=1 energy=-39205.782010430215 polarization_c_per_m2="_JSON [0.02023544187034878, -0.007148785845625024, 1.8758729083511373e-05]" pbc="T T T"
Pb       1.19177636       1.41330011       0.00019459        0       2.00000000       2.00000000       0.00422194      -0.00854415      -0.00002224
Pb       4.70486017      10.27844158      -0.00017549        0       2.00000000       2.00000000       0.00279010      -0.00787410       0.00000978
Pb       1.76979857       7.30675870      -0.00017011        0       2.00000000       2.00000000       0.00246801      -0.00619936       0.00001079
Pb       4.11711801       4.39878241       0.00021349        0       2.00000000       2.00000000       0.00238808      -0.00715791      -0.00002467
Pb       1.22258764       1.49263565       4.08584890        4       2.00000000       2.00000000      -0.00093661      -0.00419638      -0.00001530
Pb       4.63384501      10.23404511       4.08572092        4       2.00000000       2.00000000      -0.00097025      -0.00447805       0.00000038
Pb       1.72852633       7.36601582       4.08571852        4       2.00000000       2.00000000       0.00531577      -0.00630375       0.00000028
Pb       4.18550402       4.34262370       4.08584287        4       2.00000000       2.00000000       0.00558278      -0.00634274      -0.00001189
Zr       4.35581907       1.45176363       2.03683831        8       4.00000000       4.00000000       0.00041239      -0.00242113      -0.00076948
Zr       1.51436978      10.29144611       6.12764908        8       4.00000000       4.00000000       0.00074413      -0.00257782      -0.00079666
Zr       1.51434594      10.29140456       2.04385976        8       4.00000000       4.00000000       0.00074733      -0.00257386       0.00079661
Zr       4.35583721       1.45180814       6.13474434        8       4.00000000       4.00000000       0.00041084      -0.00242472       0.00076146
Zr       4.45930334       7.33206301       6.13419187        8       4.00000000       4.00000000       0.00275056      -0.00300690       0.00065293
Zr       1.42812923       4.40709427       2.04322807        8       4.00000000       4.00000000       0.00225078      -0.00288269       0.00064555
Zr       1.42815208       4.40705269       6.12835088        8       4.00000000       4.00000000       0.00224872      -0.00288053      -0.00065163
Zr       4.45927891       7.33210744       2.03731313        8       4.00000000       4.00000000       0.00275399      -0.00301007      -0.00065144
O        4.53362811       1.87315477       0.00001016       16      -2.00000000      -2.00000000      -0.00453715       0.00391936      -0.00000098
O        1.29458728       9.93166654      -0.00000954       16      -2.00000000      -2.00000000      -0.00355197       0.00465556       0.00000126
O        4.25042392       7.74400948      -0.00001073       16      -2.00000000      -2.00000000       0.00094818       0.00125699       0.00000156
O        1.62327809       4.03701886       0.00000919       16      -2.00000000      -2.00000000       0.00111103       0.00207286      -0.00000032
O        4.68362825       1.11449997       4.08576334       20      -2.00000000      -2.00000000      -0.00365872       0.00214298       0.00000064
O        1.14941685      10.66888552       4.08576954       20      -2.00000000      -2.00000000      -0.00334708       0.00168554       0.00000061
O        4.10827557       7.00361554       4.08576902       20      -2.00000000      -2.00000000       0.00168480       0.00352773       0.00000057
O        1.76972288       4.78881281       4.08576213       20      -2.00000000      -2.00000000       0.00130131       0.00232541       0.00000099
O        3.13233878       3.09487008       2.29811794       24      -2.00000000      -2.00000000       0.00104588       0.00287733      -0.00083431
O        2.74584722       8.69553540       5.86941872       24      -2.00000000      -2.00000000       0.00194247       0.00254227      -0.00002917
O        2.74609017       8.69576701       2.30221905       24      -2.00000000      -2.00000000       0.00192818       0.00252630       0.00002759
O        3.13204318       3.09459621       5.87324873       24      -2.00000000      -2.00000000       0.00108064       0.00290793       0.00085764
O        5.66028027       8.98164087       5.88286408       24      -2.00000000      -2.00000000      -0.00253446       0.00373304       0.00294115
O        0.17662955       2.81607724       2.31242319       24      -2.00000000      -2.00000000      -0.00362594       0.00332124       0.00232353
O        0.17633771       2.81635181       5.85897127       24      -2.00000000      -2.00000000      -0.00359159       0.00328773      -0.00230633
O        5.66052232       8.98141443       2.28879042       24      -2.00000000      -2.00000000      -0.00254822       0.00374742      -0.00294520
O        2.92607716       5.90248151       1.65378137       32      -2.00000000      -2.00000000      -0.00132961       0.00427937       0.00078977
O        2.92629730       5.90229802       6.51775448       32      -2.00000000      -2.00000000      -0.00134900       0.00429500      -0.00078634
O       -0.00711867       0.01292279       6.52018489       32      -2.00000000      -2.00000000      -0.00160921       0.00282560      -0.00023698
O       -0.00733926       0.01273890       1.65132822       32      -2.00000000      -2.00000000      -0.00158501       0.00284581       0.00024642
O        2.90061437       0.02625340       1.86863827       36      -2.00000000      -2.00000000      -0.00749713       0.00575392      -0.00028591
O        2.90095356       0.02593148       6.30290005       36      -2.00000000      -2.00000000      -0.00752977       0.00578356       0.00029036
O        0.00680143       5.88424179       6.30122265       36      -2.00000000      -2.00000000       0.00202160       0.00026588      -0.00007945
O        0.00645616       5.88391489       1.87028728       36      -2.00000000      -2.00000000       0.00205224       0.00029530       0.00008840
40
Lattice="5.870316421421513 0.0 0.0 -0.007980964674788094 11.765294292293007 0.0 0.002938449478948053 6.972290157344139e-05 8.172450488878187" Properties=species:S:1:pos:R:3:spacegroup_kinds:I:1:field_charges:R:1:initial_charges:R:1:forces:R:3 spacegroup="P b a m" unit_cell=conventional occupancy="_JSON {\"0\": {\"Pb\": 1.0}, \"1\": {\"Pb\": 1.0}, \"2\": {\"Pb\": 1.0}, \"3\": {\"Pb\": 1.0}, \"4\": {\"Pb\": 1.0}, \"5\": {\"Pb\": 1.0}, \"6\": {\"Pb\": 1.0}, \"7\": {\"Pb\": 1.0}, \"8\": {\"Zr\": 1.0}, \"9\": {\"Zr\": 1.0}, \"10\": {\"Zr\": 1.0}, \"11\": {\"Zr\": 1.0}, \"12\": {\"Zr\": 1.0}, \"13\": {\"Zr\": 1.0}, \"14\": {\"Zr\": 1.0}, \"15\": {\"Zr\": 1.0}, \"16\": {\"O\": 1.0}, \"17\": {\"O\": 1.0}, \"18\": {\"O\": 1.0}, \"19\": {\"O\": 1.0}, \"20\": {\"O\": 1.0}, \"21\": {\"O\": 1.0}, \"22\": {\"O\": 1.0}, \"23\": {\"O\": 1.0}, \"24\": {\"O\": 1.0}, \"25\": {\"O\": 1.0}, \"26\": {\"O\": 1.0}, \"27\": {\"O\": 1.0}, \"28\": {\"O\": 1.0}, \"29\": {\"O\": 1.0}, \"30\": {\"O\": 1.0}, \"31\": {\"O\": 1.0}, \"32\": {\"O\": 1.0}, \"33\": {\"O\": 1.0}, \"34\": {\"O\": 1.0}, \"35\": {\"O\": 1.0}, \"36\": {\"O\": 1.0}, \"37\": {\"O\": 1.0}, \"38\": {\"O\": 1.0}, \"39\": {\"O\": 1.0}}" neb_image=2 energy=-39205.7817560518 polarization_c_per_m2="_JSON [0.02306480449715434, -0.023696529767910618, -0.005018105192845295]" pbc="T T T"
Pb       1.19789027       1.39518635      -0.03013364        0       2.00000000       2.00000000       0.00034843       0.00073634       0.00512305
Pb       4.70353440      10.26124227       0.02359419        0       2.00000000       2.00000000      -0.00042199       0.00303524      -0.00012502
Pb       1.77164615       7.29668498       0.02325897        0       2.00000000       2.00000000      -0.00095936       0.00141707      -0.00078486
Pb       4.11807602       4.38529610      -0.03311005        0       2.00000000       2.00000000      -0.00015788       0.00240869       0.00466926
Pb       1.21514879       1.48500801       4.07166014        4       2.00000000       2.00000000       0.00179988       0.00199886       0.00447139
Pb       4.62660206      10.22602236       4.09174460        4       2.00000000       2.00000000       0.00103889       0.00129074       0.00089297
Pb       1.73760873       7.35423806       4.09195657        4       2.00000000       2.00000000      -0.00159437       0.00142571       0.00102847
Pb       4.19420167       4.32949576       4.07349410        4       2.00000000       2.00000000      -0.00024746       0.00245896       0.00282009
Zr       4.35599985       1.45081849       2.03142699        8       4.00000000       4.00000000       0.00048150       0.00055547       0.00115599
Zr       1.50917464      10.28358962       6.12826358        8       4.00000000       4.00000000       0.00069636       0.00084812       0.00045179
Zr       1.51269651      10.28974847       2.04733572        8       4.00000000       4.00000000       0.00008714       0.00013584       0.00004655
Zr       4.35371836       1.44443560       6.13295279        8       4.00000000       4.00000000       0.00076689       0.00115189       0.00079064
Zr       4.46230451       7.33040806       6.13789097        8       4.00000000       4.00000000      -0.00046507       0.00056806       0.00004133
Zr       1.43328223       4.40055067       2.04109150        8       4.00000000       4.00000000      -0.00036779       0.00041319       0.00056920
Zr       1.43030015       4.40610263       6.12434803        8       4.00000000       4.00000000      -0.00021966       0.00036741       0.00088578
Zr       4.46594322       7.32418542       2.03863821        8       4.00000000       4.00000000      -0.00096222       0.00082079       0.00017718
O        4.51994500       1.87520930      -0.00150085       16      -2.00000000      -2.00000000       0.00285277       0.00084115       0.00014929
O        1.28581603       9.93940634       0.00152957       16      -2.00000000      -2.00000000       0.00079381      -0.00177416      -0.00032144
O        4.25733488       7.74401873       0.00175609       16      -2.00000000      -2.00000000      -0.00105607      -0.00000049      -0.00025749
O        1.63019711       4.04090563      -0.00116937       16      -2.00000000      -2.00000000      -0.00169265      -0.00132574      -0.00001945
O        4.67704560       1.11569769       4.08702604       20      -2.00000000      -2.00000000       0.00103433      -0.00208776      -0.00024458
O        1.14271564      10.66629925       4.08628896       20      -2.00000000      -2.00000000       0.00098024       0.00096011      -0.00029263
O        4.11644825       7.01361543       4.08633142       20      -2.00000000      -2.00000000      -0.00164873      -0.00227618      -0.00023014
O        1.77306609       4.79265367       4.08728345       20      -2.00000000      -2.00000000       0.00006645       0.00011836      -0.00028732
O        3.10902999       3.07439016       2.31425761       24      -2.00000000      -2.00000000       0.00375359       0.00291420      -0.00241568
O        2.76484093       8.71481577       5.86772160       24      -2.00000000      -2.00000000      -0.00070960      -0.00102563      -0.00120939
O        2.73178946       8.68280154       2.29254291       24      -2.00000000      -2.00000000       0.00011972       0.00024800       0.00026293
O        3.15541312       3.11651326       5.88579666       24      -2.00000000      -2.00000000      -0.00299330      -0.00271856      -0.00227185
O        5.67009699       8.97430962       5.88340089       24      -2.00000000      -2.00000000       0.00075935      -0.00071993      -0.00209034
O        0.14345363       2.84877617       2.32851944       24      -2.00000000      -2.00000000       0.00499233      -0.00497611      -0.00082815
O        0.18929217       2.80558638       5.86634916       24      -2.00000000      -2.00000000      -0.00201386       0.00178267      -0.00351614
O        5.63728294       9.00527420       2.27409685       24      -2.00000000      -2.00000000       0.00148334      -0.00204857       0.00116038
O        2.94824832       5.89107241       1.65791630       32      -2.00000000      -2.00000000      -0.00236998       0.00078004      -0.00195413
O        2.91669618       5.91751969       6.51587700       32      -2.00000000      -2.00000000      -0.00000194      -0.00104117       0.00021069
O       -0.02267916       0.00677740       6.52117108       32      -2.00000000      -2.00000000       0.00196974       0.00047278      -0.00003272
O        0.01059067       0.03485632       1.65718814       32      -2.00000000      -2.00000000      -0.00289179      -0.00376160      -0.00298933
O        2.91564775       0.00930693       1.87079840       36      -2.00000000      -2.00000000      -0.00189446       0.00231128      -0.00338949
O        2.86575061       0.05654492       6.30303344       36      -2.00000000      -2.00000000       0.00382916      -0.00261963       0.00055038
O       -0.00349223       5.86966095       6.30397425       36      -2.00000000      -2.00000000      -0.00048896       0.00034648      -0.00091787
O        0.04639587       5.91738778       1.87460584       36      -2.00000000      -2.00000000      -0.00469679      -0.00403193      -0.00127936
40
Lattice="5.873853631427256 0.0 0.0 -0.005688340226180251 11.762850064955975 0.0 0.0059271694688069546 0.00033185008059984246 8.177558369092" Properties=species:S:1:pos:R:3:spacegroup_kinds:I:1:field_charges:R:1:initial_charges:R:1:forces:R:3 spacegroup="P b a m" unit_cell=conventional occupancy="_JSON {\"0\": {\"Pb\": 1.0}, \"1\": {\"Pb\": 1.0}, \"2\": {\"Pb\": 1.0}, \"3\": {\"Pb\": 1.0}, \"4\": {\"Pb\": 1.0}, \"5\": {\"Pb\": 1.0}, \"6\": {\"Pb\": 1.0}, \"7\": {\"Pb\": 1.0}, \"8\": {\"Zr\": 1.0}, \"9\": {\"Zr\": 1.0}, \"10\": {\"Zr\": 1.0}, \"11\": {\"Zr\": 1.0}, \"12\": {\"Zr\": 1.0}, \"13\": {\"Zr\": 1.0}, \"14\": {\"Zr\": 1.0}, \"15\": {\"Zr\": 1.0}, \"16\": {\"O\": 1.0}, \"17\": {\"O\": 1.0}, \"18\": {\"O\": 1.0}, \"19\": {\"O\": 1.0}, \"20\": {\"O\": 1.0}, \"21\": {\"O\": 1.0}, \"22\": {\"O\": 1.0}, \"23\": {\"O\": 1.0}, \"24\": {\"O\": 1.0}, \"25\": {\"O\": 1.0}, \"26\": {\"O\": 1.0}, \"27\": {\"O\": 1.0}, \"28\": {\"O\": 1.0}, \"29\": {\"O\": 1.0}, \"30\": {\"O\": 1.0}, \"31\": {\"O\": 1.0}, \"32\": {\"O\": 1.0}, \"33\": {\"O\": 1.0}, \"34\": {\"O\": 1.0}, \"35\": {\"O\": 1.0}, \"36\": {\"O\": 1.0}, \"37\": {\"O\": 1.0}, \"38\": {\"O\": 1.0}, \"39\": {\"O\": 1.0}}" neb_image=3 energy=-39205.7730184275 polarization_c_per_m2="_JSON [0.022116153265222965, -0.04261382166007164, -0.02584322712484372]" pbc="T T T"
Pb       1.19619959       1.38818537      -0.06594842        0       2.00000000       2.00000000       0.00029932       0.00103196       0.02066534
Pb       4.71166514      10.23590203       0.02196115        0       2.00000000       2.00000000      -0.00166711       0.01647081       0.01387231
Pb       1.78177038       7.28449422       0.02618564        0       2.00000000       2.00000000      -0.00495119       0.00898672       0.00583258
Pb       4.12214746       4.36614593      -0.06560432        0       2.00000000       2.00000000      -0.00151336       0.01601273       0.01570492
Pb       1.20361246       1.47011988       4.04178016        4       2.00000000       2.00000000       0.00718069       0.01578400       0.02831735
Pb       4.62487092      10.21415062       4.08649642        4       2.00000000       2.00000000       0.00454422       0.00973851       0.00874314
Pb       1.75378602       7.34181510       4.08537612        4       2.00000000       2.00000000      -0.00977555       0.00856938       0.01053572
Pb       4.20118178       4.30990714       4.05555524        4       2.00000000       2.00000000      -0.00127084       0.01494735       0.01069690
Zr       4.35556712       1.44604152       2.02425388        8       4.00000000       4.00000000       0.00274791       0.00376769       0.00525435
Zr       1.50916038      10.27532063       6.12834595        8       4.00000000       4.00000000       0.00163503       0.00299960       0.00347914
Zr       1.51540896      10.28625114       2.04805946        8       4.00000000       4.00000000       0.00111452       0.00227985       0.00206887
Zr       4.35312956       1.43581120       6.13123393        8       4.00000000       4.00000000       0.00224459       0.00465810       0.00370656
Zr       4.47265192       7.32438057       6.14105854        8       4.00000000       4.00000000      -0.00306601       0.00487400       0.00138975
Zr       1.43836948       4.39682318       2.03835596        8       4.00000000       4.00000000      -0.00075543       0.00088276       0.00205277
Zr       1.43631021       4.40222793       6.12169584        8       4.00000000       4.00000000      -0.00096322       0.00334945       0.00369336
Zr       4.47808747       7.31673268       2.03815791        8       4.00000000       4.00000000      -0.00387521       0.00334663       0.00217226
O        4.50171734       1.86877127      -0.00244575       16      -2.00000000      -2.00000000       0.01655793       0.00564994      -0.00010932
O        1.28199891       9.95060856       0.00378894       16      -2.00000000      -2.00000000       0.00463680      -0.01090321      -0.00138296
O        4.26975041       7.74241408       0.00349708       16      -2.00000000      -2.00000000      -0.00383492       0.00053755      -0.00071901
O        1.64513700       4.04989861      -0.00085706       16      -2.00000000      -2.00000000      -0.01014172      -0.00909080      -0.00102012
O        4.67361897       1.13062984       4.09140469       20      -2.00000000      -2.00000000       0.00593334      -0.01813716      -0.00155413
O        1.13930953      10.65687463       4.09108543       20      -2.00000000      -2.00000000       0.00373165       0.00498099      -0.00198441
O        4.13413757       7.02978641       4.09064757       20      -2.00000000      -2.00000000      -0.00967919      -0.01348644      -0.00149296
O        1.77659687       4.79126980       4.09201038       20      -2.00000000      -2.00000000       0.00140181       0.00346202      -0.00159141
O        3.08587122       3.05369642       2.33314050       24      -2.00000000      -2.00000000       0.01001065       0.00572639      -0.00613701
O        2.77301914       8.71834419       5.88198391       24      -2.00000000      -2.00000000      -0.00020087      -0.00198876      -0.00849237
O        2.73706130       8.68123353       2.29251496       24      -2.00000000      -2.00000000      -0.00811755      -0.00779215      -0.00301618
O        3.18092102       3.13472231       5.90542709       24      -2.00000000      -2.00000000      -0.00864395      -0.00828104      -0.01115966
O        5.66893069       8.98063754       5.90402198       24      -2.00000000      -2.00000000       0.00821275      -0.00791141      -0.01515199
O        0.10873280       2.88433911       2.33628725       24      -2.00000000      -2.00000000       0.01625243      -0.01666581       0.00331597
O        0.20520960       2.79397530       5.89488663       24      -2.00000000      -2.00000000      -0.00294796       0.00268698      -0.02332727
O        5.63374117       9.01745979       2.26764237       24      -2.00000000      -2.00000000      -0.00077467      -0.00268057       0.00140846
O        2.96838512       5.88529390       1.67366378       32      -2.00000000      -2.00000000      -0.00047716      -0.00611798      -0.01461762
O        2.92458712       5.92245733       6.51884700       32      -2.00000000      -2.00000000      -0.00291742      -0.00334550       0.00231170
O       -0.03328017       0.00514570       6.52563369       32      -2.00000000      -2.00000000       0.00586316      -0.00058391       0.00070819
O        0.03091448       0.06182169       1.68018597       32      -2.00000000      -2.00000000      -0.01048971      -0.01655082      -0.02192146
O        2.92903480      -0.00514093       1.89690142       36      -2.00000000      -2.00000000       0.00073077       0.00148638      -0.02193598
O        2.84327600       0.07402950       6.30341802       36      -2.00000000      -2.00000000       0.01164345      -0.00651025       0.00039762
O        0.00737044       5.86927936       6.31473430       36      -2.00000000      -2.00000000      -0.00838914      -0.00380413      -0.00458344
O        0.08184974       5.94475322       1.88554998       36      -2.00000000      -2.00000000      -0.01028882      -0.00837986      -0.00612995
40