40
Lattice="5.871972 0.0 0.0 0.0 11.774171 0.0 0.0 0.0 8.178836" Properties=species:S:1:pos:R:3:spacegroup_kinds:I:1:field_charges:R:1:initial_charges:R:1:forces:R:3 spacegroup="P b a m" unit_cell=conventional occupancy="_JSON {\"0\": {\"Pb\": 1.0}, \"1\": {\"Pb\": 1.0}, \"2\": {\"Pb\": 1.0}, \"3\": {\"Pb\": 1.0}, \"4\": {\"Pb\": 1.0}, \"5\": {\"Pb\": 1.0}, \"6\": {\"Pb\": 1.0}, \"7\": {\"Pb\": 1.0}, \"8\": {\"Zr\": 1.0}, \"9\": {\"Zr\": 1.0}, \"10\": {\"Zr\": 1.0}, \"11\": {\"Zr\": 1.0}, \"12\": {\"Zr\": 1.0}, \"13\": {\"Zr\": 1.0}, \"14\": {\"Zr\": 1.0}, \"15\": {\"Zr\": 1.0}, \"16\": {\"O\": 1.0}, \"17\": {\"O\": 1.0}, \"18\": {\"O\": 1.0}, \"19\": {\"O\": 1.0}, \"20\": {\"O\": 1.0}, \"21\": {\"O\": 1.0}, \"22\": {\"O\": 1.0}, \"23\": {\"O\": 1.0}, \"24\": {\"O\": 1.0}, \"25\": {\"O\": 1.0}, \"26\": {\"O\": 1.0}, \"27\": {\"O\": 1.0}, \"28\": {\"O\": 1.0}, \"29\": {\"O\": 1.0}, \"30\": {\"O\": 1.0}, \"31\": {\"O\": 1.0}, \"32\": {\"O\": 1.0}, \"33\": {\"O\": 1.0}, \"34\": {\"O\": 1.0}, \"35\": {\"O\": 1.0}, \"36\": {\"O\": 1.0}, \"37\": {\"O\": 1.0}, \"38\": {\"O\": 1.0}, \"39\": {\"O\": 1.0}}" neb_image=0 energy=-39205.764739708866 polarization_c_per_m2="_JSON [-0.0012611573750599988, 0.0349032942069816, -1.3526432333244794e-15]" pbc="T T T"
Pb       1.17373646       1.45287285      -0.00000000        0       2.00000000       2.00000000       0.01811033      -0.02203254      -0.00000000
Pb       4.69823554      10.32129815      -0.00000000        0       2.00000000       2.00000000       0.02886545      -0.02506414      -0.00000000
Pb       1.76224954       7.33995835      -0.00000000        0       2.00000000       2.00000000       0.02886545      -0.02203254      -0.00000000
Pb       4.10972246       4.43421265      -0.00000000        0       2.00000000       2.00000000       0.01811033      -0.02506414      -0.00000000
Pb       1.22777814       1.51267559       4.08941800        4       2.00000000       2.00000000       0.01833476      -0.01928032       0.00000000
Pb       4.64419386      10.26149541       4.08941800        4       2.00000000       2.00000000       0.02864101      -0.02781637       0.00000000
Pb       1.70820786       7.39976109       4.08941800        4       2.00000000       2.00000000       0.02864101      -0.01928032       0.00000000
Pb       4.16376414       4.37440991       4.08941800        4       2.00000000       2.00000000       0.01833476      -0.02781637       0.00000000
Zr       4.35630128       1.46381254       2.04209901        8       4.00000000       4.00000000       0.04074979      -0.05115421       0.00128299
Zr       1.51567072      10.31035846       6.13673699        8       4.00000000       4.00000000       0.05320176      -0.04303916      -0.00128299
Zr       1.51567072      10.31035846       2.04209901        8       4.00000000       4.00000000       0.05320176      -0.04303916       0.00128299
Zr       4.35630128       1.46381254       6.13673699        8       4.00000000       4.00000000       0.04074979      -0.05115421      -0.00128299
Zr       4.45165672       7.35089804       6.13673699        8       4.00000000       4.00000000       0.05320176      -0.05115421      -0.00128299
Zr       1.42031528       4.42327296       2.04209901        8       4.00000000       4.00000000       0.04074979      -0.04303916       0.00128299
Zr       1.42031528       4.42327296       6.13673699        8       4.00000000       4.00000000       0.04074979      -0.04303916      -0.00128299
Zr       4.45165672       7.35089804       2.04209901        8       4.00000000       4.00000000       0.05320176      -0.05115421       0.00128299
O        4.55672239       1.85661981      -0.00000000       16      -2.00000000      -2.00000000      -0.01967453       0.01834648       0.00000000
O        1.31524961       9.91755119      -0.00000000       16      -2.00000000      -2.00000000      -0.02730124       0.02875020       0.00000000
O        4.25123561       7.74370531      -0.00000000       16      -2.00000000      -2.00000000      -0.02730124       0.01834648       0.00000000
O        1.62073639       4.03046569      -0.00000000       16      -2.00000000      -2.00000000      -0.01967453       0.02875020       0.00000000
O        4.70256932       1.10550087       4.08941800       20      -2.00000000      -2.00000000      -0.01760133       0.03098644      -0.00000000
O        1.16940268      10.66867013       4.08941800       20      -2.00000000      -2.00000000      -0.02937445       0.01611025      -0.00000000
O        4.10538868       6.99258637       4.08941800       20      -2.00000000      -2.00000000      -0.02937445       0.03098644      -0.00000000
O        1.76658332       4.78158463       4.08941800       20      -2.00000000      -2.00000000      -0.01760133       0.01611025      -0.00000000
O        3.12999853       3.08379167       2.30409508       24      -2.00000000      -2.00000000      -0.03345472       0.03894801      -0.00556508
O        2.74197347       8.69037933       5.87474092       24      -2.00000000      -2.00000000      -0.01352106       0.00814867       0.00556508
O        2.74197347       8.69037933       2.30409508       24      -2.00000000      -2.00000000      -0.01352106       0.00814867      -0.00556508
O        3.12999853       3.08379167       5.87474092       24      -2.00000000      -2.00000000      -0.03345472       0.03894801       0.00556508
O        5.67795947       8.97087717       5.87474092       24      -2.00000000      -2.00000000      -0.01352106       0.03894801       0.00556508
O        0.19401253       2.80329383       2.30409508       24      -2.00000000      -2.00000000      -0.03345472       0.00814867      -0.00556508
O        0.19401253       2.80329383       5.87474092       24      -2.00000000      -2.00000000      -0.03345472       0.00814867       0.00556508
O        5.67795947       8.97087717       2.30409508       24      -2.00000000      -2.00000000      -0.01352106       0.03894801      -0.00556508
O        2.93598600       5.88708550       1.65175084       32      -2.00000000      -2.00000000      -0.02348789       0.02354834       0.00096873
O        2.93598600       5.88708550       6.52708516       32      -2.00000000      -2.00000000      -0.02348789       0.02354834      -0.00096873
O        0.00000000       0.00000000       6.52708516       32      -2.00000000      -2.00000000      -0.02348789       0.02354834      -0.00096873
O       -0.00000000       0.00000000       1.65175084       32      -2.00000000      -2.00000000      -0.02348789       0.02354834       0.00096873
O        2.93598600       0.00000000       1.87160782       36      -2.00000000      -2.00000000      -0.02348789       0.02354834       0.00119428
O        2.93598600       0.00000000       6.30722818       36      -2.00000000      -2.00000000      -0.02348789       0.02354834      -0.00119428
O        0.00000000       5.88708550       6.30722818       36      -2.00000000      -2.00000000      -0.02348789       0.02354834      -0.00119428
O        0.00000000       5.88708550       1.87160782       36      -2.00000000      -2.00000000      -0.02348789       0.02354834       0.00119428
40
Lattice="5.869904130864109 0.0 0.0 0.0011805187709034448 11.765293638346908 0.0 -3.684708442641545e-05 0.0003640132649002699 8.17189183637059" Properties=species:S:1:pos:R:3:spacegroup_kinds:I:1:field_charges:R:1:initial_charges:R:1:forces:R:3 spacegroup="P b a m" unit_cell=conventional occupancy="_JSON {\"0\": {\"Pb\": 1.0}, \"1\": {\"Pb\": 1.0}, \"2\": {\"Pb\": 1.0}, \"3\": {\"Pb\": 1.0}, \"4\": {\"Pb\": 1.0}, \"5\": {\"Pb\": 1.0}, \"6\": {\"Pb\": 1.0}, \"7\": {\"Pb\": 1.0}, \"8\": {\"Zr\": 1.0}, \"9\": {\"Zr\": 1.0}, \"10\": {\"Zr\": 1.0}, \"11\": {\"Zr\": 1.0}, \"12\": {\"Zr\": 1.0}, \"13\": {\"Zr\": 1.0}, \"14\": {\"Zr\": 1.0}, \"15\": {\"Zr\": 1.0}, \"16\": {\"O\": 1.0}, \"17\": {\"O\": 1.0}, \"18\": {\"O\": 1.0}, \"19\": {\"O\": 1.0}, \"20\": {\"O\": 1.0}, \"21\": {\"O\": 1.0}, \"22\": {\"O\": 1.0}, \"23\": {\"O\": 1.0}, \"24\": {\"O\": 1.0}, \"25\": {\"O\": 1.0}, \"26\": {\"O\": 1.0}, \"27\": {\"O\": 1.0}, \"28\": {\"O\": 1.0}, \"29\": {\"O\": 1.0}, \"30\": {\"O\": 1.0}, \"31\": {\"O\": 1.0}, \"32\": {\"O\": 1.0}, \"33\": {\"O\": 1.0}, \"34\": {\"O\": 1.0}, \"35\": {\"O\": 1.0}, \"36\": {\"O\": 1.0}, \"37\": {\"O\": 1.0}, \"38\": {\"O\": 1.0}, \"39\": {\"O\": 1.0}}" neb_image=1 energy=-39205.78058248922 polarization_c_per_m2="_JSON [0.01813414627506783, -0.0009567522515325537, -0.0017049232264727686]" pbc="T T T"
Pb       1.18884607       1.42126849      -0.00604808        0       2.00000000       2.00000000       0.00679729      -0.01333818       0.00122451
Pb       4.71146615      10.28221876       0.00357151        0       2.00000000       2.00000000       0.00206070      -0.01148660       0.00080665
Pb       1.77313036       7.31051684       0.00361999        0       2.00000000       2.00000000       0.00240138      -0.00864909       0.00063748
Pb       4.11916936       4.40421289      -0.00635209        0       2.00000000       2.00000000       0.00399492      -0.01007881       0.00103104
Pb       1.22579316       1.49541854       4.08270860        4       2.00000000       2.00000000      -0.00149779      -0.00593468       0.00122048
Pb       4.64122892      10.23737566       4.08640586        4       2.00000000       2.00000000      -0.00250872      -0.00602057       0.00053524
Pb       1.72929615       7.36957631       4.08648106        4       2.00000000       2.00000000       0.00598950      -0.00943808       0.00049176
Pb       4.18299498       4.34567192       4.08274236        4       2.00000000       2.00000000       0.01013418      -0.00860228       0.00130988
Zr       4.35779201       1.45320788       2.03655778        8       4.00000000       4.00000000       0.00069458      -0.00292769      -0.00086232
Zr       1.52016548      10.29233040       6.12862593        8       4.00000000       4.00000000       0.00029620      -0.00353412      -0.00096520
Zr       1.52102647      10.29319168       2.04377693        8       4.00000000       4.00000000       0.00035166      -0.00344709       0.00113704
Zr       4.35726335       1.45240766       6.13348605        8       4.00000000       4.00000000       0.00048917      -0.00320357       0.00162437
Zr       4.46131213       7.33435119       6.13430441        8       4.00000000       4.00000000       0.00314978      -0.00411225       0.00090412
Zr       1.42926686       4.40789795       2.04181265        8       4.00000000       4.00000000       0.00379363      -0.00402838       0.00141016
Zr       1.42873181       4.40905498       6.12829388        8       4.00000000       4.00000000       0.00354711      -0.00383217      -0.00064424
Zr       4.46216695       7.33312830       2.03817950        8       4.00000000       4.00000000       0.00325537      -0.00423507      -0.00073537
O        4.53695196       1.87074628      -0.00031280       16      -2.00000000      -2.00000000      -0.00482931       0.00570210       0.00005409
O        1.30386550       9.92929987       0.00038467       16      -2.00000000      -2.00000000      -0.00610947       0.00627481      -0.00008676
O        4.25013460       7.74343319       0.00037215       16      -2.00000000      -2.00000000       0.00388382       0.00115252      -0.00004717
O        1.62443536       4.03613900      -0.00027565       16      -2.00000000      -2.00000000       0.00046634       0.00227942       0.00002520
O        4.68894279       1.11520476       4.08612917       20      -2.00000000      -2.00000000      -0.00682479       0.00167557      -0.00003618
O        1.15544884      10.66765461       4.08611569       20      -2.00000000      -2.00000000      -0.00346703       0.00145936      -0.00022878
O        4.11047849       7.00166682       4.08613768       20      -2.00000000      -2.00000000       0.00282659       0.00484360      -0.00024713
O        1.76924919       4.78756373       4.08609662       20      -2.00000000      -2.00000000       0.00318943       0.00380760       0.00002285
O        3.12716357       3.08764900       2.30262719       24      -2.00000000      -2.00000000       0.00310536       0.00540835      -0.00236892
O        2.75035751       8.69499577       5.86815080       24      -2.00000000      -2.00000000       0.00305852       0.00425258       0.00053515
O        2.74539655       8.68964797       2.30227749       24      -2.00000000      -2.00000000       0.00253737       0.00402517      -0.00150251
O        3.13673519       3.09658269       5.87468220       24      -2.00000000      -2.00000000       0.00079740       0.00350998       0.00119289
O        5.66838339       8.97753864       5.88256652       24      -2.00000000      -2.00000000      -0.00305077       0.00454650       0.00270207
O        0.17530599       2.81825554       2.31128638       24      -2.00000000      -2.00000000      -0.00387271       0.00412666       0.00489104
O        0.18488332       2.80958643       5.86548654       24      -2.00000000      -2.00000000      -0.00629888       0.00608127      -0.00615210
O        5.66351200       8.98236944       2.28774982       24      -2.00000000      -2.00000000      -0.00366990       0.00489358      -0.00385291
O        2.93257274       5.89694131       1.65437521       32      -2.00000000      -2.00000000      -0.00164793       0.00600124      -0.00017019
O        2.92651380       5.90202832       6.51844029       32      -2.00000000      -2.00000000      -0.00130495       0.00561082      -0.00061939
O       -0.00792762       0.00971688       6.52166118       32      -2.00000000      -2.00000000      -0.00248648       0.00420307      -0.00130924
O       -0.00168937       0.01450301       1.65162676       32      -2.00000000      -2.00000000      -0.00289798       0.00378526       0.00050342
O        2.91252484       0.01656797       1.87297881       36      -2.00000000      -2.00000000      -0.01167533       0.00947886      -0.00341769
O        2.90323280       0.02555376       6.30011056       36      -2.00000000      -2.00000000      -0.01096574       0.00852382       0.00207388
O        0.00175879       5.87848850       6.30402813       36      -2.00000000      -2.00000000       0.00347095       0.00108476      -0.00200530
O        0.01105369       5.88714674       1.86940759       36      -2.00000000      -2.00000000       0.00281654       0.00014171       0.00091809
40
Lattice="5.871994674125916 0.0 0.0 0.013822924585894358 11.763587797303162 0.0 -0.0007924225795187098 0.002071483781652025 8.174362780005499" Properties=species:S:1:pos:R:3:spacegroup_kinds:I:1:field_charges:R:1:initial_charges:R:1:forces:R:3 spacegroup="P b a m" unit_cell=conventional occupancy="_JSON {\"0\": {\"Pb\": 1.0}, \"1\": {\"Pb\": 1.0}, \"2\": {\"Pb\": 1.0}, \"3\": {\"Pb\": 1.0}, \"4\": {\"Pb\": 1.0}, \"5\": {\"Pb\": 1.0}, \"6\": {\"Pb\": 1.0}, \"7\": {\"Pb\": 1.0}, \"8\": {\"Zr\": 1.0}, \"9\": {\"Zr\": 1.0}, \"10\": {\"Zr\": 1.0}, \"11\": {\"Zr\": 1.0}, \"12\": {\"Zr\": 1.0}, \"13\": {\"Zr\": 1.0}, \"14\": {\"Zr\": 1.0}, \"15\": {\"Zr\": 1.0}, \"16\": {\"O\": 1.0}, \"17\": {\"O\": 1.0}, \"18\": {\"O\": 1.0}, \"19\": {\"O\": 1.0}, \"20\": {\"O\": 1.0}, \"21\": {\"O\": 1.0}, \"22\": {\"O\": 1.0}, \"23\": {\"O\": 1.0}, \"24\": {\"O\": 1.0}, \"25\": {\"O\": 1.0}, \"26\": {\"O\": 1.0}, \"27\": {\"O\": 1.0}, \"28\": {\"O\": 1.0}, \"29\": {\"O\": 1.0}, \"30\": {\"O\": 1.0}, \"31\": {\"O\": 1.0}, \"32\": {\"O\": 1.0}, \"33\": {\"O\": 1.0}, \"34\": {\"O\": 1.0}, \"35\": {\"O\": 1.0}, \"36\": {\"O\": 1.0}, \"37\": {\"O\": 1.0}, \"38\": {\"O\": 1.0}, \"39\": {\"O\": 1.0}}" neb_image=2 energy=-39205.778594094474 polarization_c_per_m2="_JSON [0.018550788824216683, -0.020860505267262595, -0.011266321000484334]" pbc="T T T"
Pb       1.19474509       1.40494558      -0.03055849        0       2.00000000       2.00000000       0.00213726      -0.00327208       0.00653499
Pb       4.73094264      10.26054332       0.01197162        0       2.00000000       2.00000000      -0.00552535       0.00256825       0.00924584
Pb       1.78352492       7.29303482       0.01382635        0       2.00000000       2.00000000      -0.00153585       0.00193638       0.00612609
Pb       4.12411107       4.38234780      -0.03109724        0       2.00000000       2.00000000       0.00320529       0.00423767       0.00508590
Pb       1.21959358       1.48431692       4.06898575        4       2.00000000       2.00000000       0.00009964       0.00312865       0.00785804
Pb       4.64454693      10.22506318       4.08646042        4       2.00000000       2.00000000       0.00040047       0.00254197       0.00506374
Pb       1.75432087       7.35810319       4.08767041        4       2.00000000       2.00000000      -0.00689898       0.00004027       0.00422536
Pb       4.19297334       4.33251698       4.06950325        4       2.00000000       2.00000000       0.01076883       0.00236874       0.00767631
Zr       4.35916271       1.44972128       2.03202139        8       4.00000000       4.00000000       0.00030004       0.00200982       0.00131514
Zr       1.52844412      10.28664796       6.12803579        8       4.00000000       4.00000000      -0.00221610      -0.00027002       0.00205365
Zr       1.53250068      10.29027809       2.04700339        8       4.00000000       4.00000000      -0.00084115       0.00042990       0.00069023
Zr       4.35636323       1.44693030       6.13217506        8       4.00000000       4.00000000      -0.00049941       0.00000576       0.00255073
Zr       4.47336922       7.33114226       6.13889168        8       4.00000000       4.00000000      -0.00166938       0.00078283       0.00040215
Zr       1.43619263       4.40176129       2.03986069        8       4.00000000       4.00000000       0.00385560      -0.00082445       0.00222743
Zr       1.43400705       4.40673628       6.12524543        8       4.00000000       4.00000000       0.00253766       0.00063309       0.00130573
Zr       4.47708690       7.32601948       2.03718815        8       4.00000000       4.00000000      -0.00042385      -0.00073244       0.00192417
O        4.51773804       1.87110951      -0.00146142       16      -2.00000000      -2.00000000       0.01315400       0.00370589       0.00003793
O        1.31957782       9.93962113       0.00177131       16      -2.00000000      -2.00000000      -0.01119186      -0.00407559      -0.00027006
O        4.25714109       7.74330561       0.00176657       16      -2.00000000      -2.00000000       0.01039020       0.00027165      -0.00004140
O        1.64463133       4.04387299      -0.00112789       16      -2.00000000      -2.00000000      -0.00797344      -0.00623022      -0.00009335
O        4.68855326       1.12322392       4.08840589       20      -2.00000000      -2.00000000      -0.00683723      -0.00640199      -0.00068472
O        1.15482364      10.66651763       4.08835116       20      -2.00000000      -2.00000000       0.00574768       0.00014199      -0.00118940
O        4.13529898       7.01044176       4.08848040       20      -2.00000000      -2.00000000      -0.00703336      -0.00557155      -0.00110979
O        1.77225582       4.78525681       4.08808924       20      -2.00000000      -2.00000000       0.00893472       0.00460637      -0.00020349
O        3.11532836       3.07564773       2.31417227       24      -2.00000000      -2.00000000       0.00831786       0.00660242      -0.00612797
O        2.77676377       8.71343870       5.86054484       24      -2.00000000      -2.00000000      -0.00042244       0.00014770       0.00245107
O        2.75612094       8.69001249       2.31024294       24      -2.00000000      -2.00000000      -0.00212387      -0.00094239      -0.00889350
O        3.16276271       3.11982878       5.88802401       24      -2.00000000      -2.00000000      -0.00284642      -0.00287536      -0.00016850
O        5.68229039       8.97749106       5.89870720       24      -2.00000000      -2.00000000       0.00196095      -0.00355530      -0.01375793
O        0.15145854       2.84319245       2.31622188       24      -2.00000000      -2.00000000       0.00660334      -0.00406927       0.00893855
O        0.19911323       2.79991146       5.88336641       24      -2.00000000      -2.00000000      -0.00509957       0.00592614      -0.01613127
O        5.66258025       8.99735563       2.27269576       24      -2.00000000      -2.00000000      -0.00041647      -0.00183911       0.00458282
O        2.94880134       5.89712173       1.66817083       32      -2.00000000      -2.00000000       0.00054493      -0.00034476      -0.01157389
O        2.92126182       5.92056873       6.51214117       32      -2.00000000      -2.00000000       0.00228477      -0.00231621       0.00698163
O       -0.02102138       0.00956842       6.52813029       32      -2.00000000      -2.00000000      -0.00220723      -0.00110447      -0.00466045
O        0.00998476       0.03284860       1.65541392       32      -2.00000000      -2.00000000      -0.00611057      -0.00481451      -0.00072880
O        2.91801246       0.00896598       1.89235517       36      -2.00000000      -2.00000000      -0.00711422       0.00747012      -0.02149466
O        2.87295158       0.05266220       6.29308366       36      -2.00000000      -2.00000000      -0.00247422       0.00123909       0.00856591
O        0.00065129       5.86785339       6.31741752       36      -2.00000000      -2.00000000       0.00165812       0.00198571      -0.01162328
O        0.04307305       5.90779853       1.86765757       36      -2.00000000      -2.00000000      -0.00144037      -0.00354069       0.00290903
40
Lattice="5.873635624718901 0.0 0.0 0.025568339954105332 11.762003999878011 0.0 -0.0018673786742038683 0.0037573972110902807 8.178789338295784" Properties=species:S:1:pos:R:3:spacegroup_kinds:I:1:field_charges:R:1:initial_charges:R:1:forces:R:3 spacegroup="P b a m" unit_cell=conventional occupancy="_JSON {\"0\": {\"Pb\": 1.0}, \"1\": {\"Pb\": 1.0}, \"2\": {\"Pb\": 1.0}, \"3\": {\"Pb\": 1.0}, \"4\": {\"Pb\": 1.0}, \"5\": {\"Pb\": 1.0}, \"6\": {\"Pb\": 1.0}, \"7\": {\"Pb\": 1.0}, \"8\": {\"Zr\": 1.0}, \"9\": {\"Zr\": 1.0}, \"10\": {\"Zr\": 1.0}, \"11\": {\"Zr\": 1.0}, \"12\": {\"Zr\": 1.0}, \"13\": {\"Zr\": 1.0}, \"14\": {\"Zr\": 1.0}, \"15\": {\"Zr\": 1.0}, \"16\": {\"O\": 1.0}, \"17\": {\"O\": 1.0}, \"18\": {\"O\": 1.0}, \"19\": {\"O\": 1.0}, \"20\": {\"O\": 1.0}, \"21\": {\"O\": 1.0}, \"22\": {\"O\": 1.0}, \"23\": {\"O\": 1.0}, \"24\": {\"O\": 1.0}, \"25\": {\"O\": 1.0}, \"26\": {\"O\": 1.0}, \"27\": {\"O\": 1.0}, \"28\": {\"O\": 1.0}, \"29\": {\"O\": 1.0}, \"30\": {\"O\": 1.0}, \"31\": {\"O\": 1.0}, \"32\": {\"O\": 1.0}, \"33\": {\"O\": 1.0}, \"34\": {\"O\": 1.0}, \"35\": {\"O\": 1.0}, \"36\": {\"O\": 1.0}, \"37\": {\"O\": 1.0}, \"38\": {\"O\": 1.0}, \"39\": {\"O\": 1.0}}" neb_image=3 energy=-39205.76868595697 polarization_c_per_m2="_JSON [0.018301103184473554, -0.03926861537573078, -0.02378733408067912]" pbc="T T T"
Pb       1.20209015       1.39217656      -0.05638236        0       2.00000000       2.00000000      -0.00326316       0.00480647       0.01159446
Pb       4.74744999      10.24073171       0.01429048        0       2.00000000       2.00000000      -0.00714997       0.01480638       0.02173426
Pb       1.79260809       7.27688922       0.02068335        0       2.00000000       2.00000000      -0.00127943       0.01050467       0.01289534
Pb       4.13032759       4.36016147      -0.05590761        0       2.00000000       2.00000000       0.00107901       0.01731107       0.00974562
Pb       1.21398323       1.47151300       4.05328120        4       2.00000000       2.00000000       0.00069757       0.01365979       0.01624736
Pb       4.64566075      10.21236906       4.08413853        4       2.00000000       2.00000000       0.00620807       0.01113653       0.01128391
Pb       1.77723378       7.34712546       4.08725524        4       2.00000000       2.00000000      -0.01568771       0.00892106       0.00989439
Pb       4.19899217       4.32046734       4.05562816        4       2.00000000       2.00000000       0.01253501       0.01093108       0.01424788
Zr       4.36047829       1.44628411       2.02783419        8       4.00000000       4.00000000       0.00042121       0.00527661       0.00286086
Zr       1.53556152      10.28149575       6.12807060        8       4.00000000       4.00000000      -0.00308319       0.00154105       0.00511619
Zr       1.54264329      10.28780969       2.04943926        8       4.00000000       4.00000000       0.00033696       0.00296315       0.00153786
Zr       4.35527765       1.44226487       6.13141870        8       4.00000000       4.00000000      -0.00122151       0.00106891       0.00390071
Zr       4.48369813       7.32801265       6.14409125        8       4.00000000       4.00000000      -0.00362718       0.00425368       0.00087217
Zr       1.44126709       4.39681167       2.03808894        8       4.00000000       4.00000000       0.00529902       0.00042687       0.00308679
Zr       1.43791630       4.40486623       6.12391431        8       4.00000000       4.00000000       0.00315534       0.00334183       0.00261228
Zr       4.48997161       7.32011995       2.03638953        8       4.00000000       4.00000000      -0.00137166       0.00086966       0.00452029
O        4.49425573       1.86832849      -0.00237459       16      -2.00000000      -2.00000000       0.03051505       0.00523668      -0.00049925
O        1.33685064       9.95111931       0.00306945       16      -2.00000000      -2.00000000      -0.01898573      -0.01398321      -0.00039051
O        4.26213001       7.74189858       0.00316117       16      -2.00000000      -2.00000000       0.01599984       0.00214036       0.00002014
O        1.66409534       4.05473323      -0.00151431       16      -2.00000000      -2.00000000      -0.01736750      -0.01673761      -0.00070861
O        4.68821026       1.13427442       4.09210008       20      -2.00000000      -2.00000000      -0.00765708      -0.01534339      -0.00176465
O        1.15456824      10.66451445       4.09185149       20      -2.00000000      -2.00000000       0.01195635       0.00128614      -0.00216563
O        4.16084479       7.02218326       4.09206517       20      -2.00000000      -2.00000000      -0.01960503      -0.01799387      -0.00179286
O        1.77115928       4.78053995       4.09135597       20      -2.00000000      -2.00000000       0.01631938       0.00825059      -0.00071156
O        3.10112779       3.06224771       2.32690155       24      -2.00000000      -2.00000000       0.01314319       0.00909900      -0.00972681
O        2.80097922       8.73083627       5.85640315       24      -2.00000000      -2.00000000      -0.00587331      -0.00553962       0.00298092
O        2.76800733       8.69220312       2.31970672       24      -2.00000000      -2.00000000      -0.00716585      -0.00657619      -0.01514502
O        3.18577869       3.14074871       5.90311760       24      -2.00000000      -2.00000000      -0.00527950      -0.00700728      -0.00210329
O        5.69483673       8.97760308       5.91915919       24      -2.00000000      -2.00000000       0.00324264      -0.00746296      -0.03117796
O        0.12706138       2.86797444       2.31782532       24      -2.00000000      -2.00000000       0.01570017      -0.01166307       0.01529902
O        0.21229024       2.79003052       5.90829660       24      -2.00000000      -2.00000000      -0.00294355       0.00485661      -0.02948803
O        5.66404008       9.00946150       2.26005477       24      -2.00000000      -2.00000000       0.00068813      -0.00583786       0.01206081
O        2.96236118       5.89807846       1.68752667       32      -2.00000000      -2.00000000       0.00255846      -0.00560290      -0.02772512
O        2.91642085       5.93747772       6.50476667       32      -2.00000000      -2.00000000       0.00534644      -0.00887301       0.01725882
O       -0.03326849       0.00937060       6.53620714       32      -2.00000000      -2.00000000      -0.00212799      -0.00449716      -0.00731056
O        0.02391915       0.05238658       1.66330216       32      -2.00000000      -2.00000000      -0.01162776      -0.01370297      -0.00584844
O        2.92680111      -0.00131807       1.91798945       36      -2.00000000      -2.00000000      -0.00613109       0.00802045      -0.04129509
O        2.84624710       0.07632786       6.28701126       36      -2.00000000      -2.00000000       0.00275473      -0.00372662       0.01459306
O        0.00010209       5.85892155       6.33258680       36      -2.00000000      -2.00000000      -0.00045116       0.00204392      -0.02025668
O        0.07181494       5.92714967       1.86782600       36      -2.00000000      -2.00000000      -0.00605720      -0.00820487       0.00374694
40