40
Lattice="5.871972 0.0 0.0 0.0 11.774171 0.0 0.0 0.0 8.178836" Properties=species:S:1:pos:R:3:spacegroup_kinds:I:1:field_charges:R:1:initial_charges:R:1:forces:R:3 spacegroup="P b a m" unit_cell=conventional occupancy="_JSON {\"0\": {\"Pb\": 1.0}, \"1\": {\"Pb\": 1.0}, \"2\": {\"Pb\": 1.0}, \"3\": {\"Pb\": 1.0}, \"4\": {\"Pb\": 1.0}, \"5\": {\"Pb\": 1.0}, \"6\": {\"Pb\": 1.0}, \"7\": {\"Pb\": 1.0}, \"8\": {\"Zr\": 1.0}, \"9\": {\"Zr\": 1.0}, \"10\": {\"Zr\": 1.0}, \"11\": {\"Zr\": 1.0}, \"12\": {\"Zr\": 1.0}, \"13\": {\"Zr\": 1.0}, \"14\": {\"Zr\": 1.0}, \"15\": {\"Zr\": 1.0}, \"16\": {\"O\": 1.0}, \"17\": {\"O\": 1.0}, \"18\": {\"O\": 1.0}, \"19\": {\"O\": 1.0}, \"20\": {\"O\": 1.0}, \"21\": {\"O\": 1.0}, \"22\": {\"O\": 1.0}, \"23\": {\"O\": 1.0}, \"24\": {\"O\": 1.0}, \"25\": {\"O\": 1.0}, \"26\": {\"O\": 1.0}, \"27\": {\"O\": 1.0}, \"28\": {\"O\": 1.0}, \"29\": {\"O\": 1.0}, \"30\": {\"O\": 1.0}, \"31\": {\"O\": 1.0}, \"32\": {\"O\": 1.0}, \"33\": {\"O\": 1.0}, \"34\": {\"O\": 1.0}, \"35\": {\"O\": 1.0}, \"36\": {\"O\": 1.0}, \"37\": {\"O\": 1.0}, \"38\": {\"O\": 1.0}, \"39\": {\"O\": 1.0}}" neb_image=0 energy=-39205.764739708866 polarization_c_per_m2="_JSON [-0.0012611573750599988, 0.0349032942069816, -1.3526432333244794e-15]" pbc="T T T"
Pb       1.17373646       1.45287285      -0.00000000        0       2.00000000       2.00000000       0.01811033      -0.02203254      -0.00000000
Pb       4.69823554      10.32129815      -0.00000000        0       2.00000000       2.00000000       0.02886545      -0.02506414      -0.00000000
Pb       1.76224954       7.33995835      -0.00000000        0       2.00000000       2.00000000       0.02886545      -0.02203254      -0.00000000
Pb       4.10972246       4.43421265      -0.00000000        0       2.00000000       2.00000000       0.01811033      -0.02506414      -0.00000000
Pb       1.22777814       1.51267559       4.08941800        4       2.00000000       2.00000000       0.01833476      -0.01928032       0.00000000
Pb       4.64419386      10.26149541       4.08941800        4       2.00000000       2.00000000       0.02864101      -0.02781637       0.00000000
Pb       1.70820786       7.39976109       4.08941800        4       2.00000000       2.00000000       0.02864101      -0.01928032       0.00000000
Pb       4.16376414       4.37440991       4.08941800        4       2.00000000       2.00000000       0.01833476      -0.02781637       0.00000000
Zr       4.35630128       1.46381254       2.04209901        8       4.00000000       4.00000000       0.04074979      -0.05115421       0.00128299
Zr       1.51567072      10.31035846       6.13673699        8       4.00000000       4.00000000       0.05320176      -0.04303916      -0.00128299
Zr       1.51567072      10.31035846       2.04209901        8       4.00000000       4.00000000       0.05320176      -0.04303916       0.00128299
Zr       4.35630128       1.46381254       6.13673699        8       4.00000000       4.00000000       0.04074979      -0.05115421      -0.00128299
Zr       4.45165672       7.35089804       6.13673699        8       4.00000000       4.00000000       0.05320176      -0.05115421      -0.00128299
Zr       1.42031528       4.42327296       2.04209901        8       4.00000000       4.00000000       0.04074979      -0.04303916       0.00128299
Zr       1.42031528       4.42327296       6.13673699        8       4.00000000       4.00000000       0.04074979      -0.04303916      -0.00128299
Zr       4.45165672       7.35089804       2.04209901        8       4.00000000       4.00000000       0.05320176      -0.05115421       0.00128299
O        4.55672239       1.85661981      -0.00000000       16      -2.00000000      -2.00000000      -0.01967453       0.01834648       0.00000000
O        1.31524961       9.91755119      -0.00000000       16      -2.00000000      -2.00000000      -0.02730124       0.02875020       0.00000000
O        4.25123561       7.74370531      -0.00000000       16      -2.00000000      -2.00000000      -0.02730124       0.01834648       0.00000000
O        1.62073639       4.03046569      -0.00000000       16      -2.00000000      -2.00000000      -0.01967453       0.02875020       0.00000000
O        4.70256932       1.10550087       4.08941800       20      -2.00000000      -2.00000000      -0.01760133       0.03098644      -0.00000000
O        1.16940268      10.66867013       4.08941800       20      -2.00000000      -2.00000000      -0.02937445       0.01611025      -0.00000000
O        4.10538868       6.99258637       4.08941800       20      -2.00000000      -2.00000000      -0.02937445       0.03098644      -0.00000000
O        1.76658332       4.78158463       4.08941800       20      -2.00000000      -2.00000000      -0.01760133       0.01611025      -0.00000000
O        3.12999853       3.08379167       2.30409508       24      -2.00000000      -2.00000000      -0.03345472       0.03894801      -0.00556508
O        2.74197347       8.69037933       5.87474092       24      -2.00000000      -2.00000000      -0.01352106       0.00814867       0.00556508
O        2.74197347       8.69037933       2.30409508       24      -2.00000000      -2.00000000      -0.01352106       0.00814867      -0.00556508
O        3.12999853       3.08379167       5.87474092       24      -2.00000000      -2.00000000      -0.03345472       0.03894801       0.00556508
O        5.67795947       8.97087717       5.87474092       24      -2.00000000      -2.00000000      -0.01352106       0.03894801       0.00556508
O        0.19401253       2.80329383       2.30409508       24      -2.00000000      -2.00000000      -0.03345472       0.00814867      -0.00556508
O        0.19401253       2.80329383       5.87474092       24      -2.00000000      -2.00000000      -0.03345472       0.00814867       0.00556508
O        5.67795947       8.97087717       2.30409508       24      -2.00000000      -2.00000000      -0.01352106       0.03894801      -0.00556508
O        2.93598600       5.88708550       1.65175084       32      -2.00000000      -2.00000000      -0.02348789       0.02354834       0.00096873
O        2.93598600       5.88708550       6.52708516       32      -2.00000000      -2.00000000      -0.02348789       0.02354834      -0.00096873
O        0.00000000       0.00000000       6.52708516       32      -2.00000000      -2.00000000      -0.02348789       0.02354834      -0.00096873
O       -0.00000000       0.00000000       1.65175084       32      -2.00000000      -2.00000000      -0.02348789       0.02354834       0.00096873
O        2.93598600       0.00000000       1.87160782       36      -2.00000000      -2.00000000      -0.02348789       0.02354834       0.00119428
O        2.93598600       0.00000000       6.30722818       36      -2.00000000      -2.00000000      -0.02348789       0.02354834      -0.00119428
O        0.00000000       5.88708550       6.30722818       36      -2.00000000      -2.00000000      -0.02348789       0.02354834      -0.00119428
O        0.00000000       5.88708550       1.87160782       36      -2.00000000      -2.00000000      -0.02348789       0.02354834       0.00119428
40
Lattice="5.869485551505983 0.0 0.0 -0.004747136081412741 11.765875543489877 0.0 -3.648716199377504e-05 -5.261191199987535e-07 8.171526920918346" Properties=species:S:1:pos:R:3:spacegroup_kinds:I:1:field_charges:R:1:initial_charges:R:1:forces:R:3 spacegroup="P b a m" unit_cell=conventional occupancy="_JSON {\"0\": {\"Pb\": 1.0}, \"1\": {\"Pb\": 1.0}, \"2\": {\"Pb\": 1.0}, \"3\": {\"Pb\": 1.0}, \"4\": {\"Pb\": 1.0}, \"5\": {\"Pb\": 1.0}, \"6\": {\"Pb\": 1.0}, \"7\": {\"Pb\": 1.0}, \"8\": {\"Zr\": 1.0}, \"9\": {\"Zr\": 1.0}, \"10\": {\"Zr\": 1.0}, \"11\": {\"Zr\": 1.0}, \"12\": {\"Zr\": 1.0}, \"13\": {\"Zr\": 1.0}, \"14\": {\"Zr\": 1.0}, \"15\": {\"Zr\": 1.0}, \"16\": {\"O\": 1.0}, \"17\": {\"O\": 1.0}, \"18\": {\"O\": 1.0}, \"19\": {\"O\": 1.0}, \"20\": {\"O\": 1.0}, \"21\": {\"O\": 1.0}, \"22\": {\"O\": 1.0}, \"23\": {\"O\": 1.0}, \"24\": {\"O\": 1.0}, \"25\": {\"O\": 1.0}, \"26\": {\"O\": 1.0}, \"27\": {\"O\": 1.0}, \"28\": {\"O\": 1.0}, \"29\": {\"O\": 1.0}, \"30\": {\"O\": 1.0}, \"31\": {\"O\": 1.0}, \"32\": {\"O\": 1.0}, \"33\": {\"O\": 1.0}, \"34\": {\"O\": 1.0}, \"35\": {\"O\": 1.0}, \"36\": {\"O\": 1.0}, \"37\": {\"O\": 1.0}, \"38\": {\"O\": 1.0}, \"39\": {\"O\": 1.0}}" neb_image=1 energy=-39205.78200395636 polarization_c_per_m2="_JSON [0.020234075257473623, -0.007098203748010853, 3.900902884168028e-05]" pbc="T T T"
Pb       1.19174244       1.41338154       0.00036298        0       2.00000000       2.00000000       0.00427301      -0.00858444      -0.00004419
Pb       4.70484909      10.27851051      -0.00032133        0       2.00000000       2.00000000       0.00277855      -0.00793101       0.00001673
Pb       1.76979087       7.30676673      -0.00031030        0       2.00000000       2.00000000       0.00245327      -0.00622910       0.00001768
Pb       4.11710146       4.39879409       0.00039719        0       2.00000000       2.00000000       0.00243805      -0.00719096      -0.00004828
Pb       1.22261432       1.49264590       4.08591609        4       2.00000000       2.00000000      -0.00094841      -0.00422239      -0.00003117
Pb       4.63387133      10.23403353       4.08567959        4       2.00000000       2.00000000      -0.00102869      -0.00446418      -0.00000182
Pb       1.72849709       7.36605978       4.08567637        4       2.00000000       2.00000000       0.00530522      -0.00637517      -0.00000305
Pb       4.18545542       4.34268068       4.08590453        4       2.00000000       2.00000000       0.00564672      -0.00639750      -0.00002433
Zr       4.35580613       1.45175182       2.03686416        8       4.00000000       4.00000000       0.00036422      -0.00237289      -0.00077801
Zr       1.51438728      10.29145984       6.12763858        8       4.00000000       4.00000000       0.00067223      -0.00253258      -0.00080127
Zr       1.51434282      10.29138208       2.04383908        8       4.00000000       4.00000000       0.00067876      -0.00252468       0.00080035
Zr       4.35583912       1.45183473       6.13474947        8       4.00000000       4.00000000       0.00036139      -0.00238041       0.00076243
Zr       4.45929663       7.33204160       6.13417278        8       4.00000000       4.00000000       0.00268375      -0.00296115       0.00065119
Zr       1.42810179       4.40711078       2.04324186        8       4.00000000       4.00000000       0.00221112      -0.00284483       0.00064018
Zr       1.42814293       4.40703468       6.12836501        8       4.00000000       4.00000000       0.00220752      -0.00284115      -0.00065278
Zr       4.45925160       7.33212314       2.03729825        8       4.00000000       4.00000000       0.00269003      -0.00296699      -0.00065014
O        4.53365662       1.87313773       0.00001857       16      -2.00000000      -2.00000000      -0.00456969       0.00394526      -0.00000173
O        1.29459909       9.93161951      -0.00001772       16      -2.00000000      -2.00000000      -0.00353564       0.00468702       0.00000247
O        4.25039184       7.74400327      -0.00001968       16      -2.00000000      -2.00000000       0.00099447       0.00123363       0.00000263
O        1.62324957       4.03701037       0.00001660       16      -2.00000000      -2.00000000       0.00112956       0.00206398      -0.00000056
O        4.68363879       1.11452502       4.08575391       20      -2.00000000      -2.00000000      -0.00367234       0.00215186       0.00000161
O        1.14943552      10.66890756       4.08576549       20      -2.00000000      -2.00000000      -0.00333245       0.00168198       0.00000148
O        4.10823265       7.00355441       4.08576469       20      -2.00000000      -2.00000000       0.00175841       0.00353685       0.00000142
O        1.76969432       4.78876964       4.08575161       20      -2.00000000      -2.00000000       0.00133390       0.00233588       0.00000246
O        3.13247312       3.09500548       2.29801006       24      -2.00000000      -2.00000000       0.00108492       0.00281524      -0.00081308
O        2.74575951       8.69544432       5.86941895       24      -2.00000000      -2.00000000       0.00197018       0.00254881      -0.00001746
O        2.74620055       8.69586470       2.30229061       24      -2.00000000      -2.00000000       0.00194901       0.00252452       0.00001719
O        3.13192166       3.09449677       5.87319918       24      -2.00000000      -2.00000000       0.00115342       0.00287458       0.00085899
O        5.66022133       8.98166731       5.88284376       24      -2.00000000      -2.00000000      -0.00254332       0.00371211       0.00298284
O        0.17680232       2.81589088       2.31230364       24      -2.00000000      -2.00000000      -0.00363738       0.00336683       0.00236227
O        0.17625706       2.81640298       5.85895545       24      -2.00000000      -2.00000000      -0.00356897       0.00330166      -0.00232578
O        5.66066181       8.98125368       2.28889716       24      -2.00000000      -2.00000000      -0.00256440       0.00373637      -0.00298737
O        2.92593392       5.90256393       1.65377364       32      -2.00000000      -2.00000000      -0.00129689       0.00427557       0.00081527
O        2.92633722       5.90222812       6.51774811       32      -2.00000000      -2.00000000      -0.00133079       0.00430213      -0.00080517
O       -0.00706792       0.01294765       6.52017443       32      -2.00000000      -2.00000000      -0.00158433       0.00281724      -0.00024941
O       -0.00747498       0.01260729       1.65130639       32      -2.00000000      -2.00000000      -0.00153949       0.00285487       0.00026830
O        2.90047144       0.02639061       1.86862473       36      -2.00000000      -2.00000000      -0.00752525       0.00576709      -0.00026662
O        2.90109678       0.02579807       6.30290193       36      -2.00000000      -2.00000000      -0.00758551       0.00582107       0.00027809
O        0.00688003       5.88432647       6.30120420       36      -2.00000000      -2.00000000       0.00203516       0.00020551      -0.00007504
O        0.00624512       5.88372419       1.87027074       36      -2.00000000      -2.00000000       0.00209071       0.00025939       0.00009369
40
Lattice="5.870664822767896 0.0 0.0 -0.008324645004400697 11.765304477103415 0.0 0.0029666982730020713 4.9781649657261685e-05 8.172622397083163" Properties=species:S:1:pos:R:3:spacegroup_kinds:I:1:field_charges:R:1:initial_charges:R:1:forces:R:3 spacegroup="P b a m" unit_cell=conventional occupancy="_JSON {\"0\": {\"Pb\": 1.0}, \"1\": {\"Pb\": 1.0}, \"2\": {\"Pb\": 1.0}, \"3\": {\"Pb\": 1.0}, \"4\": {\"Pb\": 1.0}, \"5\": {\"Pb\": 1.0}, \"6\": {\"Pb\": 1.0}, \"7\": {\"Pb\": 1.0}, \"8\": {\"Zr\": 1.0}, \"9\": {\"Zr\": 1.0}, \"10\": {\"Zr\": 1.0}, \"11\": {\"Zr\": 1.0}, \"12\": {\"Zr\": 1.0}, \"13\": {\"Zr\": 1.0}, \"14\": {\"Zr\": 1.0}, \"15\": {\"Zr\": 1.0}, \"16\": {\"O\": 1.0}, \"17\": {\"O\": 1.0}, \"18\": {\"O\": 1.0}, \"19\": {\"O\": 1.0}, \"20\": {\"O\": 1.0}, \"21\": {\"O\": 1.0}, \"22\": {\"O\": 1.0}, \"23\": {\"O\": 1.0}, \"24\": {\"O\": 1.0}, \"25\": {\"O\": 1.0}, \"26\": {\"O\": 1.0}, \"27\": {\"O\": 1.0}, \"28\": {\"O\": 1.0}, \"29\": {\"O\": 1.0}, \"30\": {\"O\": 1.0}, \"31\": {\"O\": 1.0}, \"32\": {\"O\": 1.0}, \"33\": {\"O\": 1.0}, \"34\": {\"O\": 1.0}, \"35\": {\"O\": 1.0}, \"36\": {\"O\": 1.0}, \"37\": {\"O\": 1.0}, \"38\": {\"O\": 1.0}, \"39\": {\"O\": 1.0}}" neb_image=2 energy=-39205.78164900715 polarization_c_per_m2="_JSON [0.02307878213476358, -0.025216806186470927, -0.0065595378855760255]" pbc="T T T"
Pb       1.19751423       1.39431199      -0.03037665        0       2.00000000       2.00000000       0.00064548       0.00097286       0.00603136
Pb       4.70380727      10.25980665       0.02138404        0       2.00000000       2.00000000      -0.00055905       0.00405510       0.00102572
Pb       1.77232162       7.29585664       0.02102217        0       2.00000000       2.00000000      -0.00148361       0.00176060       0.00017742
Pb       4.11783824       4.38354141      -0.03320149        0       2.00000000       2.00000000      -0.00011884       0.00350024       0.00556923
Pb       1.21413466       1.48409648       4.07048373        4       2.00000000       2.00000000       0.00237120       0.00272240       0.00588699
Pb       4.62611449      10.22492447       4.09040453        4       2.00000000       2.00000000       0.00127265       0.00199950       0.00169386
Pb       1.73864892       7.35344533       4.09021361        4       2.00000000       2.00000000      -0.00226939       0.00203003       0.00224220
Pb       4.19480161       4.32839223       4.07279192        4       2.00000000       2.00000000      -0.00048525       0.00326763       0.00355113
Zr       4.35563393       1.45030744       2.03117440        8       4.00000000       4.00000000       0.00074992       0.00079935       0.00143088
Zr       1.50873321      10.28328682       6.12788038        8       4.00000000       4.00000000       0.00082241       0.00106447       0.00073428
Zr       1.51222723      10.28944376       2.04713779        8       4.00000000       4.00000000       0.00018130       0.00023476       0.00020543
Zr       4.35363914       1.44401445       6.13295479        8       4.00000000       4.00000000       0.00095510       0.00149039       0.00098981
Zr       4.46295642       7.32968797       6.13770751        8       4.00000000       4.00000000      -0.00072623       0.00094631       0.00023368
Zr       1.43328143       4.40053979       2.04109007        8       4.00000000       4.00000000      -0.00042863       0.00043614       0.00070256
Zr       1.43069374       4.40557092       6.12417998        8       4.00000000       4.00000000      -0.00036962       0.00059640       0.00112807
Zr       4.46645004       7.32389191       2.03818799        8       4.00000000       4.00000000      -0.00124592       0.00103900       0.00041868
O        4.51905743       1.87503926      -0.00142643       16      -2.00000000      -2.00000000       0.00345473       0.00106696       0.00013429
O        1.28480029       9.94020859       0.00154646       16      -2.00000000      -2.00000000       0.00122783      -0.00239517      -0.00037978
O        4.25806319       7.74391873       0.00170454       16      -2.00000000      -2.00000000      -0.00138491       0.00016084      -0.00026839
O        1.63125513       4.04158624      -0.00101308       16      -2.00000000      -2.00000000      -0.00228149      -0.00188095      -0.00010952
O        4.67667051       1.11669484       4.08723831       20      -2.00000000      -2.00000000       0.00147808      -0.00303579      -0.00035286
O        1.14186322      10.66612056       4.08656707       20      -2.00000000      -2.00000000       0.00125885       0.00127569      -0.00043301
O        4.11724007       7.01464652       4.08657036       20      -2.00000000      -2.00000000      -0.00216154      -0.00322150      -0.00033964
O        1.77355487       4.79232964       4.08754422       20      -2.00000000      -2.00000000      -0.00009797       0.00040960      -0.00042793
O        3.10946265       3.07513888       2.31420890       24      -2.00000000      -2.00000000       0.00403839       0.00292445      -0.00260975
O        2.76335314       8.71368779       5.86927377       24      -2.00000000      -2.00000000      -0.00018156      -0.00064761      -0.00215357
O        2.73397503       8.68509723       2.29342946       24      -2.00000000      -2.00000000      -0.00086141      -0.00077997       0.00001086
O        3.15624014       3.11695234       5.88677183       24      -2.00000000      -2.00000000      -0.00368875      -0.00323926      -0.00313083
O        5.66802167       8.97624088       5.88516723       24      -2.00000000      -2.00000000       0.00173419      -0.00155499      -0.00318241
O        0.14278291       2.84936018       2.32854019       24      -2.00000000      -2.00000000       0.00574497      -0.00575172      -0.00089826
O        0.18920136       2.80583613       5.86746271       24      -2.00000000      -2.00000000      -0.00228405       0.00193102      -0.00461723
O        5.63867043       9.00442055       2.27477581       24      -2.00000000      -2.00000000       0.00102808      -0.00185160       0.00101441
O        2.94746343       5.89251249       1.65917573       32      -2.00000000      -2.00000000      -0.00197802      -0.00001140      -0.00306496
O        2.91810833       5.91706177       6.51617198       32      -2.00000000      -2.00000000      -0.00048201      -0.00101599       0.00021760
O       -0.02269074       0.00738055       6.52150942       32      -2.00000000      -2.00000000       0.00223320       0.00032623      -0.00005035
O        0.00965772       0.03497122       1.65827342       32      -2.00000000      -2.00000000      -0.00295913      -0.00435286      -0.00414710
O        2.91343317       0.01124017       1.87208354       36      -2.00000000      -2.00000000      -0.00119811       0.00176459      -0.00451075
O        2.86553304       0.05632176       6.30339394       36      -2.00000000      -2.00000000       0.00435938      -0.00277694       0.00042667
O       -0.00107146       5.87140625       6.30431551       36      -2.00000000      -2.00000000      -0.00137794      -0.00013951      -0.00106783
O        0.04614869       5.91698585       1.87563837       36      -2.00000000      -2.00000000      -0.00493233      -0.00411932      -0.00208091
40
Lattice="5.874949235151347 0.0 0.0 -0.007844514312827934 11.763218790678192 0.0 0.00564699444119871 0.000481645999623285 8.178270555734573" Properties=species:S:1:pos:R:3:spacegroup_kinds:I:1:field_charges:R:1:initial_charges:R:1:forces:R:3 spacegroup="P b a m" unit_cell=conventional occupancy="_JSON {\"0\": {\"Pb\": 1.0}, \"1\": {\"Pb\": 1.0}, \"2\": {\"Pb\": 1.0}, \"3\": {\"Pb\": 1.0}, \"4\": {\"Pb\": 1.0}, \"5\": {\"Pb\": 1.0}, \"6\": {\"Pb\": 1.0}, \"7\": {\"Pb\": 1.0}, \"8\": {\"Zr\": 1.0}, \"9\": {\"Zr\": 1.0}, \"10\": {\"Zr\": 1.0}, \"11\": {\"Zr\": 1.0}, \"12\": {\"Zr\": 1.0}, \"13\": {\"Zr\": 1.0}, \"14\": {\"Zr\": 1.0}, \"15\": {\"Zr\": 1.0}, \"16\": {\"O\": 1.0}, \"17\": {\"O\": 1.0}, \"18\": {\"O\": 1.0}, \"19\": {\"O\": 1.0}, \"20\": {\"O\": 1.0}, \"21\": {\"O\": 1.0}, \"22\": {\"O\": 1.0}, \"23\": {\"O\": 1.0}, \"24\": {\"O\": 1.0}, \"25\": {\"O\": 1.0}, \"26\": {\"O\": 1.0}, \"27\": {\"O\": 1.0}, \"28\": {\"O\": 1.0}, \"29\": {\"O\": 1.0}, \"30\": {\"O\": 1.0}, \"31\": {\"O\": 1.0}, \"32\": {\"O\": 1.0}, \"33\": {\"O\": 1.0}, \"34\": {\"O\": 1.0}, \"35\": {\"O\": 1.0}, \"36\": {\"O\": 1.0}, \"37\": {\"O\": 1.0}, \"38\": {\"O\": 1.0}, \"39\": {\"O\": 1.0}}" neb_image=3 energy=-39205.7712479268 polarization_c_per_m2="_JSON [0.02253040438214381, -0.04610639525473164, -0.030968695249092997]" pbc="T T T"
Pb       1.19390685       1.38766889      -0.06504158        0       2.00000000       2.00000000       0.00151804       0.00063505       0.02287508
Pb       4.71149027      10.23348142       0.01311563        0       2.00000000       2.00000000      -0.00136788       0.01844548       0.01748673
Pb       1.78333922       7.28358916       0.01732998        0       2.00000000       2.00000000      -0.00656773       0.00792524       0.00915076
Pb       4.12092014       4.36061027      -0.06505099        0       2.00000000       2.00000000      -0.00192201       0.01841471       0.01885089
Pb       1.20155407       1.46764555       4.03844670        4       2.00000000       2.00000000       0.00774868       0.01766738       0.03243240
Pb       4.62363756      10.21054298       4.08184769        4       2.00000000       2.00000000       0.00434546       0.01163234       0.01083533
Pb       1.75597551       7.34007443       4.07807416        4       2.00000000       2.00000000      -0.01075407       0.01092023       0.01557169
Pb       4.20263630       4.30815532       4.05440161        4       2.00000000       2.00000000      -0.00189859       0.01668736       0.01233595
Zr       4.35461427       1.44502072       2.02407718        8       4.00000000       4.00000000       0.00317559       0.00407154       0.00570256
Zr       1.50732502      10.27540810       6.12731617        8       4.00000000       4.00000000       0.00159993       0.00341963       0.00406129
Zr       1.51312300      10.28614485       2.04709030        8       4.00000000       4.00000000       0.00127431       0.00233867       0.00268515
Zr       4.35308313       1.43514947       6.13133485        8       4.00000000       4.00000000       0.00246223       0.00538045       0.00432097
Zr       4.47329391       7.32247117       6.14025131        8       4.00000000       4.00000000      -0.00339668       0.00560591       0.00219553
Zr       1.43766780       4.39743912       2.03843774        8       4.00000000       4.00000000      -0.00101135       0.00081500       0.00260786
Zr       1.43647713       4.40108788       6.12154482        8       4.00000000       4.00000000      -0.00113699       0.00355204       0.00419829
Zr       4.47821472       7.31642943       2.03655072        8       4.00000000       4.00000000      -0.00432722       0.00373406       0.00281552
O        4.50181650       1.86856308      -0.00212246       16      -2.00000000      -2.00000000       0.01647416       0.00632043      -0.00023542
O        1.27824079       9.95296030       0.00372313       16      -2.00000000      -2.00000000       0.00600201      -0.01224612      -0.00157726
O        4.27006504       7.74156366       0.00314651       16      -2.00000000      -2.00000000      -0.00462977       0.00177616      -0.00077152
O        1.64677956       4.05238542      -0.00025085       16      -2.00000000      -2.00000000      -0.01117288      -0.01062551      -0.00135144
O        4.67245985       1.13527076       4.09223121       20      -2.00000000      -2.00000000       0.00710631      -0.02110983      -0.00188540
O        1.13658479      10.65719386       4.09212503       20      -2.00000000      -2.00000000       0.00347731       0.00624310      -0.00237676
O        4.13489704       7.03285707       4.09153746       20      -2.00000000      -2.00000000      -0.01041099      -0.01702071      -0.00182249
O        1.77773885       4.78875377       4.09304975       20      -2.00000000      -2.00000000       0.00115219       0.00467966      -0.00203840
O        3.09037090       3.05928626       2.33022508       24      -2.00000000      -2.00000000       0.01014892       0.00542621      -0.00623602
O        2.76711905       8.71493926       5.88706664       24      -2.00000000      -2.00000000       0.00114098      -0.00078767      -0.01271954
O        2.74490803       8.69109963       2.29624360       24      -2.00000000      -2.00000000      -0.01039083      -0.01042758      -0.00246402
O        3.18294122       3.13614635       5.91010289       24      -2.00000000      -2.00000000      -0.00979269      -0.00903706      -0.01359363
O        5.66216584       8.98590657       5.90913431       24      -2.00000000      -2.00000000       0.01005459      -0.00937044      -0.01764646
O        0.11064757       2.88207832       2.33519164       24      -2.00000000      -2.00000000       0.01694863      -0.01744152       0.00322753
O        0.20493355       2.79436513       5.89905092       24      -2.00000000      -2.00000000      -0.00315144       0.00262727      -0.02666229
O        5.63985515       9.01220088       2.27156568       24      -2.00000000      -2.00000000      -0.00238570      -0.00158169       0.00050654
O        2.96035269       5.89364479       1.67910987       32      -2.00000000      -2.00000000       0.00207370      -0.00924835      -0.01923826
O        2.92656804       5.92188919       6.51969274       32      -2.00000000      -2.00000000      -0.00398972      -0.00293777       0.00244727
O       -0.03351775       0.00634325       6.52668403       32      -2.00000000      -2.00000000       0.00633211      -0.00068518       0.00103171
O        0.02566283       0.05954783       1.68386451       32      -2.00000000      -2.00000000      -0.01048426      -0.01744469      -0.02584447
O        2.92007645       0.00374155       1.90051830       36      -2.00000000      -2.00000000       0.00245569      -0.00020057      -0.02439304
O        2.84425858       0.07239860       6.30563926       36      -2.00000000      -2.00000000       0.01218860      -0.00644053      -0.00046450
O        0.01156644       5.87304638       6.31492650       36      -2.00000000      -2.00000000      -0.00962853      -0.00442106      -0.00430693
O        0.07448697       5.93854346       1.89014651       36      -2.00000000      -2.00000000      -0.00926010      -0.00729162      -0.00971120
40