40
Lattice="5.871972 0.0 0.0 0.0 11.774171 0.0 0.0 0.0 8.178836" Properties=species:S:1:pos:R:3:spacegroup_kinds:I:1:field_charges:R:1:initial_charges:R:1:forces:R:3 spacegroup="P b a m" unit_cell=conventional occupancy="_JSON {\"0\": {\"Pb\": 1.0}, \"1\": {\"Pb\": 1.0}, \"2\": {\"Pb\": 1.0}, \"3\": {\"Pb\": 1.0}, \"4\": {\"Pb\": 1.0}, \"5\": {\"Pb\": 1.0}, \"6\": {\"Pb\": 1.0}, \"7\": {\"Pb\": 1.0}, \"8\": {\"Zr\": 1.0}, \"9\": {\"Zr\": 1.0}, \"10\": {\"Zr\": 1.0}, \"11\": {\"Zr\": 1.0}, \"12\": {\"Zr\": 1.0}, \"13\": {\"Zr\": 1.0}, \"14\": {\"Zr\": 1.0}, \"15\": {\"Zr\": 1.0}, \"16\": {\"O\": 1.0}, \"17\": {\"O\": 1.0}, \"18\": {\"O\": 1.0}, \"19\": {\"O\": 1.0}, \"20\": {\"O\": 1.0}, \"21\": {\"O\": 1.0}, \"22\": {\"O\": 1.0}, \"23\": {\"O\": 1.0}, \"24\": {\"O\": 1.0}, \"25\": {\"O\": 1.0}, \"26\": {\"O\": 1.0}, \"27\": {\"O\": 1.0}, \"28\": {\"O\": 1.0}, \"29\": {\"O\": 1.0}, \"30\": {\"O\": 1.0}, \"31\": {\"O\": 1.0}, \"32\": {\"O\": 1.0}, \"33\": {\"O\": 1.0}, \"34\": {\"O\": 1.0}, \"35\": {\"O\": 1.0}, \"36\": {\"O\": 1.0}, \"37\": {\"O\": 1.0}, \"38\": {\"O\": 1.0}, \"39\": {\"O\": 1.0}}" neb_image=0 energy=-39205.764739708866 polarization_c_per_m2="_JSON [-0.0012611573750599988, 0.0349032942069816, -1.3526432333244794e-15]" pbc="T T T"
Pb       1.17373646       1.45287285      -0.00000000        0       2.00000000       2.00000000       0.01811033      -0.02203254      -0.00000000
Pb       4.69823554      10.32129815      -0.00000000        0       2.00000000       2.00000000       0.02886545      -0.02506414      -0.00000000
Pb       1.76224954       7.33995835      -0.00000000        0       2.00000000       2.00000000       0.02886545      -0.02203254      -0.00000000
Pb       4.10972246       4.43421265      -0.00000000        0       2.00000000       2.00000000       0.01811033      -0.02506414      -0.00000000
Pb       1.22777814       1.51267559       4.08941800        4       2.00000000       2.00000000       0.01833476      -0.01928032       0.00000000
Pb       4.64419386      10.26149541       4.08941800        4       2.00000000       2.00000000       0.02864101      -0.02781637       0.00000000
Pb       1.70820786       7.39976109       4.08941800        4       2.00000000       2.00000000       0.02864101      -0.01928032       0.00000000
Pb       4.16376414       4.37440991       4.08941800        4       2.00000000       2.00000000       0.01833476      -0.02781637       0.00000000
Zr       4.35630128       1.46381254       2.04209901        8       4.00000000       4.00000000       0.04074979      -0.05115421       0.00128299
Zr       1.51567072      10.31035846       6.13673699        8       4.00000000       4.00000000       0.05320176      -0.04303916      -0.00128299
Zr       1.51567072      10.31035846       2.04209901        8       4.00000000       4.00000000       0.05320176      -0.04303916       0.00128299
Zr       4.35630128       1.46381254       6.13673699        8       4.00000000       4.00000000       0.04074979      -0.05115421      -0.00128299
Zr       4.45165672       7.35089804       6.13673699        8       4.00000000       4.00000000       0.05320176      -0.05115421      -0.00128299
Zr       1.42031528       4.42327296       2.04209901        8       4.00000000       4.00000000       0.04074979      -0.04303916       0.00128299
Zr       1.42031528       4.42327296       6.13673699        8       4.00000000       4.00000000       0.04074979      -0.04303916      -0.00128299
Zr       4.45165672       7.35089804       2.04209901        8       4.00000000       4.00000000       0.05320176      -0.05115421       0.00128299
O        4.55672239       1.85661981      -0.00000000       16      -2.00000000      -2.00000000      -0.01967453       0.01834648       0.00000000
O        1.31524961       9.91755119      -0.00000000       16      -2.00000000      -2.00000000      -0.02730124       0.02875020       0.00000000
O        4.25123561       7.74370531      -0.00000000       16      -2.00000000      -2.00000000      -0.02730124       0.01834648       0.00000000
O        1.62073639       4.03046569      -0.00000000       16      -2.00000000      -2.00000000      -0.01967453       0.02875020       0.00000000
O        4.70256932       1.10550087       4.08941800       20      -2.00000000      -2.00000000      -0.01760133       0.03098644      -0.00000000
O        1.16940268      10.66867013       4.08941800       20      -2.00000000      -2.00000000      -0.02937445       0.01611025      -0.00000000
O        4.10538868       6.99258637       4.08941800       20      -2.00000000      -2.00000000      -0.02937445       0.03098644      -0.00000000
O        1.76658332       4.78158463       4.08941800       20      -2.00000000      -2.00000000      -0.01760133       0.01611025      -0.00000000
O        3.12999853       3.08379167       2.30409508       24      -2.00000000      -2.00000000      -0.03345472       0.03894801      -0.00556508
O        2.74197347       8.69037933       5.87474092       24      -2.00000000      -2.00000000      -0.01352106       0.00814867       0.00556508
O        2.74197347       8.69037933       2.30409508       24      -2.00000000      -2.00000000      -0.01352106       0.00814867      -0.00556508
O        3.12999853       3.08379167       5.87474092       24      -2.00000000      -2.00000000      -0.03345472       0.03894801       0.00556508
O        5.67795947       8.97087717       5.87474092       24      -2.00000000      -2.00000000      -0.01352106       0.03894801       0.00556508
O        0.19401253       2.80329383       2.30409508       24      -2.00000000      -2.00000000      -0.03345472       0.00814867      -0.00556508
O        0.19401253       2.80329383       5.87474092       24      -2.00000000      -2.00000000      -0.03345472       0.00814867       0.00556508
O        5.67795947       8.97087717       2.30409508       24      -2.00000000      -2.00000000      -0.01352106       0.03894801      -0.00556508
O        2.93598600       5.88708550       1.65175084       32      -2.00000000      -2.00000000      -0.02348789       0.02354834       0.00096873
O        2.93598600       5.88708550       6.52708516       32      -2.00000000      -2.00000000      -0.02348789       0.02354834      -0.00096873
O        0.00000000       0.00000000       6.52708516       32      -2.00000000      -2.00000000      -0.02348789       0.02354834      -0.00096873
O       -0.00000000       0.00000000       1.65175084       32      -2.00000000      -2.00000000      -0.02348789       0.02354834       0.00096873
O        2.93598600       0.00000000       1.87160782       36      -2.00000000      -2.00000000      -0.02348789       0.02354834       0.00119428
O        2.93598600       0.00000000       6.30722818       36      -2.00000000      -2.00000000      -0.02348789       0.02354834      -0.00119428
O        0.00000000       5.88708550       6.30722818       36      -2.00000000      -2.00000000      -0.02348789       0.02354834      -0.00119428
O        0.00000000       5.88708550       1.87160782       36      -2.00000000      -2.00000000      -0.02348789       0.02354834       0.00119428
40
Lattice="5.869491354341561 0.0 0.0 -0.004830751671600971 11.765898672796785 0.0 -4.37525592487145e-05 -4.7614773651895107e-07 8.171521601017451" Properties=species:S:1:pos:R:3:spacegroup_kinds:I:1:field_charges:R:1:initial_charges:R:1:forces:R:3 spacegroup="P b a m" unit_cell=conventional occupancy="_JSON {\"0\": {\"Pb\": 1.0}, \"1\": {\"Pb\": 1.0}, \"2\": {\"Pb\": 1.0}, \"3\": {\"Pb\": 1.0}, \"4\": {\"Pb\": 1.0}, \"5\": {\"Pb\": 1.0}, \"6\": {\"Pb\": 1.0}, \"7\": {\"Pb\": 1.0}, \"8\": {\"Zr\": 1.0}, \"9\": {\"Zr\": 1.0}, \"10\": {\"Zr\": 1.0}, \"11\": {\"Zr\": 1.0}, \"12\": {\"Zr\": 1.0}, \"13\": {\"Zr\": 1.0}, \"14\": {\"Zr\": 1.0}, \"15\": {\"Zr\": 1.0}, \"16\": {\"O\": 1.0}, \"17\": {\"O\": 1.0}, \"18\": {\"O\": 1.0}, \"19\": {\"O\": 1.0}, \"20\": {\"O\": 1.0}, \"21\": {\"O\": 1.0}, \"22\": {\"O\": 1.0}, \"23\": {\"O\": 1.0}, \"24\": {\"O\": 1.0}, \"25\": {\"O\": 1.0}, \"26\": {\"O\": 1.0}, \"27\": {\"O\": 1.0}, \"28\": {\"O\": 1.0}, \"29\": {\"O\": 1.0}, \"30\": {\"O\": 1.0}, \"31\": {\"O\": 1.0}, \"32\": {\"O\": 1.0}, \"33\": {\"O\": 1.0}, \"34\": {\"O\": 1.0}, \"35\": {\"O\": 1.0}, \"36\": {\"O\": 1.0}, \"37\": {\"O\": 1.0}, \"38\": {\"O\": 1.0}, \"39\": {\"O\": 1.0}}" neb_image=1 energy=-39205.782054332136 polarization_c_per_m2="_JSON [0.020338977711546996, -0.007472831515604922, 5.380482732087384e-05]" pbc="T T T"
Pb       1.19193150       1.41295155       0.00043641        0       2.00000000       2.00000000       0.00409650      -0.00833224      -0.00005693
Pb       4.70482852      10.27818734      -0.00037522        0       2.00000000       2.00000000       0.00267570      -0.00765997       0.00001436
Pb       1.76977440       7.30650840      -0.00036191        0       2.00000000       2.00000000       0.00238177      -0.00603405       0.00001662
Pb       4.11712529       4.39847000       0.00047686        0       2.00000000       2.00000000       0.00228802      -0.00699047      -0.00006177
Pb       1.22248506       1.49247584       4.08594985        4       2.00000000       2.00000000      -0.00096021      -0.00408829      -0.00004382
Pb       4.63367467      10.23385935       4.08566673        4       2.00000000       2.00000000      -0.00098296      -0.00436884      -0.00000564
Pb       1.72867898       7.36581770       4.08566406        4       2.00000000       2.00000000       0.00517826      -0.00612087      -0.00000855
Pb       4.18569331       4.34243875       4.08593395        4       2.00000000       2.00000000       0.00542578      -0.00615957      -0.00003283
Zr       4.35576604       1.45167842       2.03683948        8       4.00000000       4.00000000       0.00037320      -0.00234335      -0.00075475
Zr       1.51428060      10.29140656       6.12759330        8       4.00000000       4.00000000       0.00068856      -0.00250280      -0.00077756
Zr       1.51422735      10.29131355       2.04387267        8       4.00000000       4.00000000       0.00069655      -0.00249269       0.00077412
Zr       4.35580414       1.45177721       6.13478839        8       4.00000000       4.00000000       0.00037013      -0.00235231       0.00073322
Zr       4.45932657       7.33194730       6.13419391        8       4.00000000       4.00000000       0.00266421      -0.00291583       0.00063582
Zr       1.42813662       4.40703693       2.04327845        8       4.00000000       4.00000000       0.00217826      -0.00279050       0.00062365
Zr       1.42818410       4.40694820       6.12834071        8       4.00000000       4.00000000       0.00217460      -0.00278734      -0.00064039
Zr       4.45927325       7.33204309       2.03726411        8       4.00000000       4.00000000       0.00267207      -0.00292176      -0.00063619
O        4.53343726       1.87327701       0.00002199       16      -2.00000000      -2.00000000      -0.00444212       0.00377931      -0.00000210
O        1.29441935       9.93181978      -0.00002135       16      -2.00000000      -2.00000000      -0.00344864       0.00451883       0.00000322
O        4.25045779       7.74403146      -0.00002347       16      -2.00000000      -2.00000000       0.00096960       0.00120749       0.00000342
O        1.62334881       4.03708252       0.00001928       16      -2.00000000      -2.00000000       0.00112784       0.00201728      -0.00000014
O        4.68345412       1.11455324       4.08574888       20      -2.00000000      -2.00000000      -0.00357406       0.00207033       0.00000235
O        1.14923202      10.66895573       4.08576231       20      -2.00000000      -2.00000000      -0.00324495       0.00161881       0.00000245
O        4.10834730       7.00369080       4.08576146       20      -2.00000000      -2.00000000       0.00168516       0.00343224       0.00000209
O        1.76976575       4.78883429       4.08574585       20      -2.00000000      -2.00000000       0.00128213       0.00223409       0.00000341
O        3.13261245       3.09519620       2.29792505       24      -2.00000000      -2.00000000       0.00100771       0.00277724      -0.00079924
O        2.74580274       8.69559898       5.86939490       24      -2.00000000      -2.00000000       0.00192033       0.00250544      -0.00002789
O        2.74631512       8.69608806       2.30233480       24      -2.00000000      -2.00000000       0.00190176       0.00248205       0.00003363
O        3.13194834       3.09458652       5.87321160       24      -2.00000000      -2.00000000       0.00109470       0.00285093       0.00085994
O        5.66004441       8.98183640       5.88299052       24      -2.00000000      -2.00000000      -0.00244915       0.00361068       0.00286078
O        0.17670269       2.81599055       2.31241158       24      -2.00000000      -2.00000000      -0.00355421       0.00326492       0.00227115
O        0.17604514       2.81660718       5.85878475       24      -2.00000000      -2.00000000      -0.00346704       0.00318102      -0.00222312
O        5.66055677       8.98135318       2.28877711       24      -2.00000000      -2.00000000      -0.00246765       0.00363426      -0.00286037
O        2.92580363       5.90279599       1.65382747       32      -2.00000000      -2.00000000      -0.00125880       0.00414606       0.00079379
O        2.92627824       5.90240107       6.51768230       32      -2.00000000      -2.00000000      -0.00129600       0.00417503      -0.00077792
O       -0.00711266       0.01308285       6.52015311       32      -2.00000000      -2.00000000      -0.00158947       0.00272930      -0.00023017
O       -0.00759689       0.01267682       1.65130731       32      -2.00000000      -2.00000000      -0.00153327       0.00277736       0.00025886
O        2.90005859       0.02671763       1.86859244       36      -2.00000000      -2.00000000      -0.00728861       0.00558412      -0.00027248
O        2.90079989       0.02601609       6.30292265       36      -2.00000000      -2.00000000      -0.00736086       0.00564760       0.00029164
O        0.00701469       5.88441454       6.30118709       36      -2.00000000      -2.00000000       0.00200077       0.00027679      -0.00007385
O        0.00626487       5.88370143       1.87026623       36      -2.00000000      -2.00000000       0.00206440       0.00033969       0.00010118
40
Lattice="5.870880164622848 0.0 0.0 -0.008486630884597366 11.76525321110617 0.0 0.003019008699664531 4.177883851355709e-05 8.172778707403989" Properties=species:S:1:pos:R:3:spacegroup_kinds:I:1:field_charges:R:1:initial_charges:R:1:forces:R:3 spacegroup="P b a m" unit_cell=conventional occupancy="_JSON {\"0\": {\"Pb\": 1.0}, \"1\": {\"Pb\": 1.0}, \"2\": {\"Pb\": 1.0}, \"3\": {\"Pb\": 1.0}, \"4\": {\"Pb\": 1.0}, \"5\": {\"Pb\": 1.0}, \"6\": {\"Pb\": 1.0}, \"7\": {\"Pb\": 1.0}, \"8\": {\"Zr\": 1.0}, \"9\": {\"Zr\": 1.0}, \"10\": {\"Zr\": 1.0}, \"11\": {\"Zr\": 1.0}, \"12\": {\"Zr\": 1.0}, \"13\": {\"Zr\": 1.0}, \"14\": {\"Zr\": 1.0}, \"15\": {\"Zr\": 1.0}, \"16\": {\"O\": 1.0}, \"17\": {\"O\": 1.0}, \"18\": {\"O\": 1.0}, \"19\": {\"O\": 1.0}, \"20\": {\"O\": 1.0}, \"21\": {\"O\": 1.0}, \"22\": {\"O\": 1.0}, \"23\": {\"O\": 1.0}, \"24\": {\"O\": 1.0}, \"25\": {\"O\": 1.0}, \"26\": {\"O\": 1.0}, \"27\": {\"O\": 1.0}, \"28\": {\"O\": 1.0}, \"29\": {\"O\": 1.0}, \"30\": {\"O\": 1.0}, \"31\": {\"O\": 1.0}, \"32\": {\"O\": 1.0}, \"33\": {\"O\": 1.0}, \"34\": {\"O\": 1.0}, \"35\": {\"O\": 1.0}, \"36\": {\"O\": 1.0}, \"37\": {\"O\": 1.0}, \"38\": {\"O\": 1.0}, \"39\": {\"O\": 1.0}}" neb_image=2 energy=-39205.7815176541 polarization_c_per_m2="_JSON [0.023067238948213584, -0.02607788141173531, -0.007553794903006428]" pbc="T T T"
Pb       1.19723132       1.39391075      -0.03107983        0       2.00000000       2.00000000       0.00088415       0.00107646       0.00663838
Pb       4.70403522      10.25887854       0.02051007        0       2.00000000       2.00000000      -0.00070113       0.00467345       0.00170038
Pb       1.77275705       7.29538888       0.02012944        0       2.00000000       2.00000000      -0.00181183       0.00194518       0.00074458
Pb       4.11772265       4.38246523      -0.03384582        0       2.00000000       2.00000000      -0.00003433       0.00416582       0.00615044
Pb       1.21354947       1.48354103       4.06955538        4       2.00000000       2.00000000       0.00277530       0.00314618       0.00676940
Pb       4.62589685      10.22424187       4.08975366        4       2.00000000       2.00000000       0.00138409       0.00242773       0.00217589
Pb       1.73930049       7.35294925       4.08933035        4       2.00000000       2.00000000      -0.00269507       0.00237661       0.00296016
Pb       4.19516663       4.32772835       4.07216918        4       2.00000000       2.00000000      -0.00058570       0.00377663       0.00402800
Zr       4.35549172       1.45004670       2.03096697        8       4.00000000       4.00000000       0.00089422       0.00096222       0.00161965
Zr       1.50850108      10.28302457       6.12773178        8       4.00000000       4.00000000       0.00089061       0.00119247       0.00090635
Zr       1.51205174      10.28929099       2.04706647        8       4.00000000       4.00000000       0.00023263       0.00027568       0.00030406
Zr       4.35360356       1.44369723       6.13291316        8       4.00000000       4.00000000       0.00106818       0.00169214       0.00113458
Zr       4.46333265       7.32928625       6.13767669        8       4.00000000       4.00000000      -0.00087148       0.00117477       0.00034983
Zr       1.43333881       4.40048047       2.04103312        8       4.00000000       4.00000000      -0.00047060       0.00043049       0.00079414
Zr       1.43092015       4.40530639       6.12405611        8       4.00000000       4.00000000      -0.00044249       0.00074235       0.00130517
Zr       4.46680959       7.32363336       2.03798398        8       4.00000000       4.00000000      -0.00139674       0.00117011       0.00057310
O        4.51858135       1.87489114      -0.00141551       16      -2.00000000      -2.00000000       0.00379753       0.00119574       0.00012975
O        1.28429407       9.94067196       0.00158914       16      -2.00000000      -2.00000000       0.00149150      -0.00278754      -0.00042287
O        4.25849949       7.74380559       0.00170903       16      -2.00000000      -2.00000000      -0.00156814       0.00023276      -0.00027568
O        1.63183127       4.04201817      -0.00094783       16      -2.00000000      -2.00000000      -0.00263407      -0.00222526      -0.00015178
O        4.67649072       1.11734318       4.08740144       20      -2.00000000      -2.00000000       0.00171889      -0.00362909      -0.00041962
O        1.14141972      10.66591400       4.08676284       20      -2.00000000      -2.00000000       0.00142189       0.00147022      -0.00053009
O        4.11775612       7.01525956       4.08674387       20      -2.00000000      -2.00000000      -0.00245760      -0.00380409      -0.00041322
O        1.77386416       4.79207120       4.08773930       20      -2.00000000      -2.00000000      -0.00019513       0.00059330      -0.00051812
O        3.10933194       3.07516715       2.31438569       24      -2.00000000      -2.00000000       0.00424460       0.00296887      -0.00273968
O        2.76283062       8.71327938       5.87013172       24      -2.00000000      -2.00000000       0.00010702      -0.00044646      -0.00273526
O        2.73497571       8.68607885       2.29384140       24      -2.00000000      -2.00000000      -0.00140352      -0.00134449      -0.00013420
O        3.15717288       3.11757295       5.88767258       24      -2.00000000      -2.00000000      -0.00415605      -0.00361483      -0.00369718
O        5.66716421       8.97703573       5.88616863       24      -2.00000000      -2.00000000       0.00230195      -0.00204075      -0.00386290
O        0.14201514       2.85008190       2.32872065       24      -2.00000000      -2.00000000       0.00624187      -0.00626293      -0.00093942
O        0.18960831       2.80556319       5.86840016       24      -2.00000000      -2.00000000      -0.00252429       0.00211279      -0.00530391
O        5.63922571       9.00417115       2.27500877       24      -2.00000000      -2.00000000       0.00079109      -0.00176928       0.00092835
O        2.94730869       5.89309780       1.65997453       32      -2.00000000      -2.00000000      -0.00177868      -0.00045901      -0.00371540
O        2.91864313       5.91702900       6.51635985       32      -2.00000000      -2.00000000      -0.00071251      -0.00103674       0.00021754
O       -0.02294611       0.00750477       6.52175365       32      -2.00000000      -2.00000000       0.00240223       0.00026075      -0.00007155
O        0.00951840       0.03534384       1.65902020       32      -2.00000000      -2.00000000      -0.00309751      -0.00476106      -0.00482607
O        2.91274775       0.01183740       1.87298389       36      -2.00000000      -2.00000000      -0.00090964       0.00155639      -0.00524428
O        2.86504389       0.05657237       6.30356353       36      -2.00000000      -2.00000000       0.00469304      -0.00289258       0.00035083
O       -0.00014202       5.87191777       6.30455381       36      -2.00000000      -2.00000000      -0.00182250      -0.00035415      -0.00117585
O        0.04644358       5.91712794       1.87638695       36      -2.00000000      -2.00000000      -0.00507182      -0.00419087      -0.00260350
40
Lattice="5.875360348987737 0.0 0.0 -0.00865258807174292 11.76321934755905 0.0 0.005522476259850383 0.0005722784733833219 8.178708359801034" Properties=species:S:1:pos:R:3:spacegroup_kinds:I:1:field_charges:R:1:initial_charges:R:1:forces:R:3 spacegroup="P b a m" unit_cell=conventional occupancy="_JSON {\"0\": {\"Pb\": 1.0}, \"1\": {\"Pb\": 1.0}, \"2\": {\"Pb\": 1.0}, \"3\": {\"Pb\": 1.0}, \"4\": {\"Pb\": 1.0}, \"5\": {\"Pb\": 1.0}, \"6\": {\"Pb\": 1.0}, \"7\": {\"Pb\": 1.0}, \"8\": {\"Zr\": 1.0}, \"9\": {\"Zr\": 1.0}, \"10\": {\"Zr\": 1.0}, \"11\": {\"Zr\": 1.0}, \"12\": {\"Zr\": 1.0}, \"13\": {\"Zr\": 1.0}, \"14\": {\"Zr\": 1.0}, \"15\": {\"Zr\": 1.0}, \"16\": {\"O\": 1.0}, \"17\": {\"O\": 1.0}, \"18\": {\"O\": 1.0}, \"19\": {\"O\": 1.0}, \"20\": {\"O\": 1.0}, \"21\": {\"O\": 1.0}, \"22\": {\"O\": 1.0}, \"23\": {\"O\": 1.0}, \"24\": {\"O\": 1.0}, \"25\": {\"O\": 1.0}, \"26\": {\"O\": 1.0}, \"27\": {\"O\": 1.0}, \"28\": {\"O\": 1.0}, \"29\": {\"O\": 1.0}, \"30\": {\"O\": 1.0}, \"31\": {\"O\": 1.0}, \"32\": {\"O\": 1.0}, \"33\": {\"O\": 1.0}, \"34\": {\"O\": 1.0}, \"35\": {\"O\": 1.0}, \"36\": {\"O\": 1.0}, \"37\": {\"O\": 1.0}, \"38\": {\"O\": 1.0}, \"39\": {\"O\": 1.0}}" neb_image=3 energy=-39205.7702577652 polarization_c_per_m2="_JSON [0.0226290043469946, -0.047381275968102286, -0.03322152251886674]" pbc="T T T"
Pb       1.19307714       1.38742303      -0.06526199        0       2.00000000       2.00000000       0.00203460       0.00039435       0.02369534
Pb       4.71133837      10.23196697       0.00981350        0       2.00000000       2.00000000      -0.00121287       0.01921682       0.01893748
Pb       1.78413997       7.28370625       0.01412258        0       2.00000000       2.00000000      -0.00724848       0.00727949       0.01060605
Pb       4.12050182       4.35875580      -0.06559699        0       2.00000000       2.00000000      -0.00202031       0.01931806       0.02015329
Pb       1.20055529       1.46679895       4.03677795        4       2.00000000       2.00000000       0.00803969       0.01837115       0.03401928
Pb       4.62308188      10.20933814       4.08018320        4       2.00000000       2.00000000       0.00418880       0.01239545       0.01160406
Pb       1.75651624       7.33908506       4.07525586        4       2.00000000       2.00000000      -0.01104525       0.01196443       0.01769614
Pb       4.20303420       4.30713932       4.05367056        4       2.00000000       2.00000000      -0.00204009       0.01735615       0.01305120
Zr       4.35433024       1.44458798       2.02390370        8       4.00000000       4.00000000       0.00329515       0.00423203       0.00590063
Zr       1.50657965      10.27529234       6.12706551        8       4.00000000       4.00000000       0.00156282       0.00354972       0.00428009
Zr       1.51228339      10.28602238       2.04675058        8       4.00000000       4.00000000       0.00135774       0.00233806       0.00295133
Zr       4.35307089       1.43481900       6.13141790        8       4.00000000       4.00000000       0.00251452       0.00562514       0.00457706
Zr       4.47345133       7.32176413       6.13999129        8       4.00000000       4.00000000      -0.00349162       0.00587339       0.00254474
Zr       1.43744103       4.39769130       2.03838483        8       4.00000000       4.00000000      -0.00111661       0.00075443       0.00286416
Zr       1.43647880       4.40072189       6.12151458        8       4.00000000       4.00000000      -0.00115138       0.00364215       0.00442713
Zr       4.47826959       7.31623751       2.03605407        8       4.00000000       4.00000000      -0.00444349       0.00387576       0.00307529
O        4.50199608       1.86835529      -0.00200737       16      -2.00000000      -2.00000000       0.01635641       0.00657756      -0.00029891
O        1.27675020       9.95387744       0.00376690       16      -2.00000000      -2.00000000       0.00661391      -0.01277066      -0.00166596
O        4.27030675       7.74106242       0.00306793       16      -2.00000000      -2.00000000      -0.00496771       0.00230965      -0.00079984
O        1.64723682       4.05336109      -0.00002306       16      -2.00000000      -2.00000000      -0.01156494      -0.01124744      -0.00147760
O        4.67193176       1.13675333       4.09264088       20      -2.00000000      -2.00000000       0.00752070      -0.02225041      -0.00202979
O        1.13557518      10.65660451       4.09261878       20      -2.00000000      -2.00000000       0.00330963       0.00676382      -0.00253127
O        4.13510473       7.03475822       4.09197257       20      -2.00000000      -2.00000000      -0.01064909      -0.01865290      -0.00196211
O        1.77807266       4.78807257       4.09354427       20      -2.00000000      -2.00000000       0.00113296       0.00520317      -0.00222389
O        3.09099512       3.06029061       2.32985073       24      -2.00000000      -2.00000000       0.01028926       0.00542881      -0.00632421
O        2.76451078       8.71319818       5.88993403       24      -2.00000000      -2.00000000       0.00163310      -0.00034010      -0.01468678
O        2.74695366       8.69378859       2.29690305       24      -2.00000000      -2.00000000      -0.01109090      -0.01125479      -0.00203656
O        3.18356568       3.13651755       5.91197900       24      -2.00000000      -2.00000000      -0.01019660      -0.00932168      -0.01459029
O        5.65927180       8.98810515       5.91171495       24      -2.00000000      -2.00000000       0.01068948      -0.00988039      -0.01860314
O        0.11036746       2.88225284       2.33545530       24      -2.00000000      -2.00000000       0.01724475      -0.01779007       0.00320411
O        0.20468223       2.79467698       5.90055344       24      -2.00000000      -2.00000000      -0.00322481       0.00264111      -0.02794450
O        5.64133492       9.01093784       2.27254364       24      -2.00000000      -2.00000000      -0.00288745      -0.00126353       0.00018438
O        2.95822227       5.89592990       1.68138094       32      -2.00000000      -2.00000000       0.00295762      -0.01031912      -0.02120399
O        2.92760846       5.92132639       6.52020151       32      -2.00000000      -2.00000000      -0.00437276      -0.00277837       0.00255241
O       -0.03328846       0.00709966       6.52710054       32      -2.00000000      -2.00000000       0.00649753      -0.00069420       0.00114494
O        0.02497156       0.05979778       1.68580561       32      -2.00000000      -2.00000000      -0.01073783      -0.01799321      -0.02743733
O        2.91808208       0.00577162       1.90214331       36      -2.00000000      -2.00000000       0.00283771      -0.00059589      -0.02528806
O        2.84486032       0.07152728       6.30659523       36      -2.00000000      -2.00000000       0.01233190      -0.00638864      -0.00081131
O        0.01317269       5.87454445       6.31505680       36      -2.00000000      -2.00000000      -0.01002966      -0.00461975      -0.00419364
O        0.07266472       5.93714452       1.89248734       36      -2.00000000      -2.00000000      -0.00891642      -0.00694952      -0.01135995
40