40
Lattice="5.871972 0.0 0.0 0.0 11.774171 0.0 0.0 0.0 8.178836" Properties=species:S:1:pos:R:3:spacegroup_kinds:I:1:field_charges:R:1:initial_charges:R:1:forces:R:3 spacegroup="P b a m" unit_cell=conventional occupancy="_JSON {\"0\": {\"Pb\": 1.0}, \"1\": {\"Pb\": 1.0}, \"2\": {\"Pb\": 1.0}, \"3\": {\"Pb\": 1.0}, \"4\": {\"Pb\": 1.0}, \"5\": {\"Pb\": 1.0}, \"6\": {\"Pb\": 1.0}, \"7\": {\"Pb\": 1.0}, \"8\": {\"Zr\": 1.0}, \"9\": {\"Zr\": 1.0}, \"10\": {\"Zr\": 1.0}, \"11\": {\"Zr\": 1.0}, \"12\": {\"Zr\": 1.0}, \"13\": {\"Zr\": 1.0}, \"14\": {\"Zr\": 1.0}, \"15\": {\"Zr\": 1.0}, \"16\": {\"O\": 1.0}, \"17\": {\"O\": 1.0}, \"18\": {\"O\": 1.0}, \"19\": {\"O\": 1.0}, \"20\": {\"O\": 1.0}, \"21\": {\"O\": 1.0}, \"22\": {\"O\": 1.0}, \"23\": {\"O\": 1.0}, \"24\": {\"O\": 1.0}, \"25\": {\"O\": 1.0}, \"26\": {\"O\": 1.0}, \"27\": {\"O\": 1.0}, \"28\": {\"O\": 1.0}, \"29\": {\"O\": 1.0}, \"30\": {\"O\": 1.0}, \"31\": {\"O\": 1.0}, \"32\": {\"O\": 1.0}, \"33\": {\"O\": 1.0}, \"34\": {\"O\": 1.0}, \"35\": {\"O\": 1.0}, \"36\": {\"O\": 1.0}, \"37\": {\"O\": 1.0}, \"38\": {\"O\": 1.0}, \"39\": {\"O\": 1.0}}" neb_image=0 energy=-39205.764739708866 polarization_c_per_m2="_JSON [-0.0012611573750599988, 0.0349032942069816, -1.3526432333244794e-15]" pbc="T T T"
Pb       1.17373646       1.45287285      -0.00000000        0       2.00000000       2.00000000       0.01811033      -0.02203254      -0.00000000
Pb       4.69823554      10.32129815      -0.00000000        0       2.00000000       2.00000000       0.02886545      -0.02506414      -0.00000000
Pb       1.76224954       7.33995835      -0.00000000        0       2.00000000       2.00000000       0.02886545      -0.02203254      -0.00000000
Pb       4.10972246       4.43421265      -0.00000000        0       2.00000000       2.00000000       0.01811033      -0.02506414      -0.00000000
Pb       1.22777814       1.51267559       4.08941800        4       2.00000000       2.00000000       0.01833476      -0.01928032       0.00000000
Pb       4.64419386      10.26149541       4.08941800        4       2.00000000       2.00000000       0.02864101      -0.02781637       0.00000000
Pb       1.70820786       7.39976109       4.08941800        4       2.00000000       2.00000000       0.02864101      -0.01928032       0.00000000
Pb       4.16376414       4.37440991       4.08941800        4       2.00000000       2.00000000       0.01833476      -0.02781637       0.00000000
Zr       4.35630128       1.46381254       2.04209901        8       4.00000000       4.00000000       0.04074979      -0.05115421       0.00128299
Zr       1.51567072      10.31035846       6.13673699        8       4.00000000       4.00000000       0.05320176      -0.04303916      -0.00128299
Zr       1.51567072      10.31035846       2.04209901        8       4.00000000       4.00000000       0.05320176      -0.04303916       0.00128299
Zr       4.35630128       1.46381254       6.13673699        8       4.00000000       4.00000000       0.04074979      -0.05115421      -0.00128299
Zr       4.45165672       7.35089804       6.13673699        8       4.00000000       4.00000000       0.05320176      -0.05115421      -0.00128299
Zr       1.42031528       4.42327296       2.04209901        8       4.00000000       4.00000000       0.04074979      -0.04303916       0.00128299
Zr       1.42031528       4.42327296       6.13673699        8       4.00000000       4.00000000       0.04074979      -0.04303916      -0.00128299
Zr       4.45165672       7.35089804       2.04209901        8       4.00000000       4.00000000       0.05320176      -0.05115421       0.00128299
O        4.55672239       1.85661981      -0.00000000       16      -2.00000000      -2.00000000      -0.01967453       0.01834648       0.00000000
O        1.31524961       9.91755119      -0.00000000       16      -2.00000000      -2.00000000      -0.02730124       0.02875020       0.00000000
O        4.25123561       7.74370531      -0.00000000       16      -2.00000000      -2.00000000      -0.02730124       0.01834648       0.00000000
O        1.62073639       4.03046569      -0.00000000       16      -2.00000000      -2.00000000      -0.01967453       0.02875020       0.00000000
O        4.70256932       1.10550087       4.08941800       20      -2.00000000      -2.00000000      -0.01760133       0.03098644      -0.00000000
O        1.16940268      10.66867013       4.08941800       20      -2.00000000      -2.00000000      -0.02937445       0.01611025      -0.00000000
O        4.10538868       6.99258637       4.08941800       20      -2.00000000      -2.00000000      -0.02937445       0.03098644      -0.00000000
O        1.76658332       4.78158463       4.08941800       20      -2.00000000      -2.00000000      -0.01760133       0.01611025      -0.00000000
O        3.12999853       3.08379167       2.30409508       24      -2.00000000      -2.00000000      -0.03345472       0.03894801      -0.00556508
O        2.74197347       8.69037933       5.87474092       24      -2.00000000      -2.00000000      -0.01352106       0.00814867       0.00556508
O        2.74197347       8.69037933       2.30409508       24      -2.00000000      -2.00000000      -0.01352106       0.00814867      -0.00556508
O        3.12999853       3.08379167       5.87474092       24      -2.00000000      -2.00000000      -0.03345472       0.03894801       0.00556508
O        5.67795947       8.97087717       5.87474092       24      -2.00000000      -2.00000000      -0.01352106       0.03894801       0.00556508
O        0.19401253       2.80329383       2.30409508       24      -2.00000000      -2.00000000      -0.03345472       0.00814867      -0.00556508
O        0.19401253       2.80329383       5.87474092       24      -2.00000000      -2.00000000      -0.03345472       0.00814867       0.00556508
O        5.67795947       8.97087717       2.30409508       24      -2.00000000      -2.00000000      -0.01352106       0.03894801      -0.00556508
O        2.93598600       5.88708550       1.65175084       32      -2.00000000      -2.00000000      -0.02348789       0.02354834       0.00096873
O        2.93598600       5.88708550       6.52708516       32      -2.00000000      -2.00000000      -0.02348789       0.02354834      -0.00096873
O        0.00000000       0.00000000       6.52708516       32      -2.00000000      -2.00000000      -0.02348789       0.02354834      -0.00096873
O       -0.00000000       0.00000000       1.65175084       32      -2.00000000      -2.00000000      -0.02348789       0.02354834       0.00096873
O        2.93598600       0.00000000       1.87160782       36      -2.00000000      -2.00000000      -0.02348789       0.02354834       0.00119428
O        2.93598600       0.00000000       6.30722818       36      -2.00000000      -2.00000000      -0.02348789       0.02354834      -0.00119428
O        0.00000000       5.88708550       6.30722818       36      -2.00000000      -2.00000000      -0.02348789       0.02354834      -0.00119428
O        0.00000000       5.88708550       1.87160782       36      -2.00000000      -2.00000000      -0.02348789       0.02354834       0.00119428
40
Lattice="5.869491538417595 0.0 0.0 -0.004853639029737896 11.765903756321018 0.0 -4.891331140957332e-05 -4.183868100599536e-07 8.171520610737295" Properties=species:S:1:pos:R:3:spacegroup_kinds:I:1:field_charges:R:1:initial_charges:R:1:forces:R:3 spacegroup="P b a m" unit_cell=conventional occupancy="_JSON {\"0\": {\"Pb\": 1.0}, \"1\": {\"Pb\": 1.0}, \"2\": {\"Pb\": 1.0}, \"3\": {\"Pb\": 1.0}, \"4\": {\"Pb\": 1.0}, \"5\": {\"Pb\": 1.0}, \"6\": {\"Pb\": 1.0}, \"7\": {\"Pb\": 1.0}, \"8\": {\"Zr\": 1.0}, \"9\": {\"Zr\": 1.0}, \"10\": {\"Zr\": 1.0}, \"11\": {\"Zr\": 1.0}, \"12\": {\"Zr\": 1.0}, \"13\": {\"Zr\": 1.0}, \"14\": {\"Zr\": 1.0}, \"15\": {\"Zr\": 1.0}, \"16\": {\"O\": 1.0}, \"17\": {\"O\": 1.0}, \"18\": {\"O\": 1.0}, \"19\": {\"O\": 1.0}, \"20\": {\"O\": 1.0}, \"21\": {\"O\": 1.0}, \"22\": {\"O\": 1.0}, \"23\": {\"O\": 1.0}, \"24\": {\"O\": 1.0}, \"25\": {\"O\": 1.0}, \"26\": {\"O\": 1.0}, \"27\": {\"O\": 1.0}, \"28\": {\"O\": 1.0}, \"29\": {\"O\": 1.0}, \"30\": {\"O\": 1.0}, \"31\": {\"O\": 1.0}, \"32\": {\"O\": 1.0}, \"33\": {\"O\": 1.0}, \"34\": {\"O\": 1.0}, \"35\": {\"O\": 1.0}, \"36\": {\"O\": 1.0}, \"37\": {\"O\": 1.0}, \"38\": {\"O\": 1.0}, \"39\": {\"O\": 1.0}}" neb_image=1 energy=-39205.78206341609 polarization_c_per_m2="_JSON [0.020353277555979547, -0.007537748022806262, 6.311380951650406e-05]" pbc="T T T"
Pb       1.19196127       1.41287614       0.00048831        0       2.00000000       2.00000000       0.00407164      -0.00828198      -0.00006519
Pb       4.70480855      10.27814436      -0.00041526        0       2.00000000       2.00000000       0.00266955      -0.00762233       0.00001419
Pb       1.76976132       7.30645867      -0.00040002        0       2.00000000       2.00000000       0.00237849      -0.00600421       0.00001653
Pb       4.11711552       4.39840356       0.00053332        0       2.00000000       2.00000000       0.00228058      -0.00695574      -0.00007064
Pb       1.22245573       1.49244444       4.08597396        4       2.00000000       2.00000000      -0.00095155      -0.00406926      -0.00005120
Pb       4.63362986      10.23382143       4.08565811        4       2.00000000       2.00000000      -0.00096810      -0.00434949      -0.00000798
Pb       1.72870620       7.36578511       4.08565575        4       2.00000000       2.00000000       0.00515551      -0.00609146      -0.00001179
Pb       4.18572517       4.34240867       4.08595567        4       2.00000000       2.00000000       0.00539421      -0.00613337      -0.00003837
Zr       4.35575111       1.45166245       2.03684115        8       4.00000000       4.00000000       0.00037530      -0.00233634      -0.00075281
Zr       1.51425340      10.29140165       6.12758400        8       4.00000000       4.00000000       0.00069226      -0.00249485      -0.00077431
Zr       1.51419383      10.29129768       2.04387592        8       4.00000000       4.00000000       0.00070141      -0.00248331       0.00076965
Zr       4.35579305       1.45177270       6.13479909        8       4.00000000       4.00000000       0.00037208      -0.00234651       0.00072784
Zr       4.45932782       7.33192675       6.13419695        8       4.00000000       4.00000000       0.00265779      -0.00290555       0.00063186
Zr       1.42813371       4.40702798       2.04328997        8       4.00000000       4.00000000       0.00217159      -0.00278090       0.00061929
Zr       1.42818590       4.40692981       6.12834045        8       4.00000000       4.00000000       0.00216782      -0.00277779      -0.00063881
Zr       4.45926848       7.33203303       2.03725420        8       4.00000000       4.00000000       0.00266659      -0.00291190      -0.00063318
O        4.53339504       1.87329663       0.00002442       16      -2.00000000      -2.00000000      -0.00442156       0.00376149      -0.00000233
O        1.29437933       9.93184842      -0.00002389       16      -2.00000000      -2.00000000      -0.00343811       0.00450010       0.00000370
O        4.25046686       7.74403852      -0.00002615       16      -2.00000000      -2.00000000       0.00095905       0.00120372       0.00000383
O        1.62336722       4.03709632       0.00002126       16      -2.00000000      -2.00000000       0.00111759       0.00201176      -0.00000003
O        4.68341556       1.11455834       4.08574674       20      -2.00000000      -2.00000000      -0.00355549       0.00207127       0.00000282
O        1.14919182      10.66897241       4.08576162       20      -2.00000000      -2.00000000      -0.00323243       0.00161494       0.00000301
O        4.10836305       7.00370579       4.08576071       20      -2.00000000      -2.00000000       0.00166790       0.00342033       0.00000258
O        1.76977288       4.78883595       4.08574325       20      -2.00000000      -2.00000000       0.00127104       0.00222530       0.00000410
O        3.13266940       3.09526579       2.29788313       24      -2.00000000      -2.00000000       0.00099034       0.00275941      -0.00079045
O        2.74579531       8.69562038       5.86938800       24      -2.00000000      -2.00000000       0.00190590       0.00248841      -0.00002319
O        2.74636040       8.69616003       2.30236048       24      -2.00000000      -2.00000000       0.00188873       0.00246552       0.00003218
O        3.13192551       3.09458426       5.87320544       24      -2.00000000      -2.00000000       0.00109019       0.00284339       0.00086047
O        5.65999664       8.98187556       5.88301228       24      -2.00000000      -2.00000000      -0.00243928       0.00359635       0.00284405
O        0.17671681       2.81597267       2.31240903       24      -2.00000000      -2.00000000      -0.00354514       0.00325339       0.00225510
O        0.17597993       2.81666311       5.85874588       24      -2.00000000      -2.00000000      -0.00344490       0.00315729      -0.00219916
O        5.66056222       8.98134108       2.28877887       24      -2.00000000      -2.00000000      -0.00245669       0.00362037      -0.00284116
O        2.92574951       5.90285925       1.65383807       32      -2.00000000      -2.00000000      -0.00125223       0.00412597       0.00079091
O        2.92627602       5.90242131       6.51766658       32      -2.00000000      -2.00000000      -0.00129239       0.00415701      -0.00077119
O       -0.00711265       0.01311480       6.52014781       32      -2.00000000      -2.00000000      -0.00158816       0.00271312      -0.00022794
O       -0.00765190       0.01266209       1.65130204       32      -2.00000000      -2.00000000      -0.00152508       0.00276731       0.00026179
O        2.89994373       0.02681219       1.86857642       36      -2.00000000      -2.00000000      -0.00724821       0.00555267      -0.00026507
O        2.90076845       0.02603215       6.30293440       36      -2.00000000      -2.00000000      -0.00732859       0.00562291       0.00028840
O        0.00706532       5.88446128       6.30118104       36      -2.00000000      -2.00000000       0.00198623       0.00027169      -0.00007231
O        0.00623220       5.88366816       1.87026077       36      -2.00000000      -2.00000000       0.00205611       0.00034128       0.00010483
40
Lattice="5.870951535650156 0.0 0.0 -0.008587976982131085 11.76524129163815 0.0 0.0030220604042761902 3.8836821736095644e-05 8.172825448374308" Properties=species:S:1:pos:R:3:spacegroup_kinds:I:1:field_charges:R:1:initial_charges:R:1:forces:R:3 spacegroup="P b a m" unit_cell=conventional occupancy="_JSON {\"0\": {\"Pb\": 1.0}, \"1\": {\"Pb\": 1.0}, \"2\": {\"Pb\": 1.0}, \"3\": {\"Pb\": 1.0}, \"4\": {\"Pb\": 1.0}, \"5\": {\"Pb\": 1.0}, \"6\": {\"Pb\": 1.0}, \"7\": {\"Pb\": 1.0}, \"8\": {\"Zr\": 1.0}, \"9\": {\"Zr\": 1.0}, \"10\": {\"Zr\": 1.0}, \"11\": {\"Zr\": 1.0}, \"12\": {\"Zr\": 1.0}, \"13\": {\"Zr\": 1.0}, \"14\": {\"Zr\": 1.0}, \"15\": {\"Zr\": 1.0}, \"16\": {\"O\": 1.0}, \"17\": {\"O\": 1.0}, \"18\": {\"O\": 1.0}, \"19\": {\"O\": 1.0}, \"20\": {\"O\": 1.0}, \"21\": {\"O\": 1.0}, \"22\": {\"O\": 1.0}, \"23\": {\"O\": 1.0}, \"24\": {\"O\": 1.0}, \"25\": {\"O\": 1.0}, \"26\": {\"O\": 1.0}, \"27\": {\"O\": 1.0}, \"28\": {\"O\": 1.0}, \"29\": {\"O\": 1.0}, \"30\": {\"O\": 1.0}, \"31\": {\"O\": 1.0}, \"32\": {\"O\": 1.0}, \"33\": {\"O\": 1.0}, \"34\": {\"O\": 1.0}, \"35\": {\"O\": 1.0}, \"36\": {\"O\": 1.0}, \"37\": {\"O\": 1.0}, \"38\": {\"O\": 1.0}, \"39\": {\"O\": 1.0}}" neb_image=2 energy=-39205.78147998248 polarization_c_per_m2="_JSON [0.02307089427383879, -0.026344526079739573, -0.007883009515156351]" pbc="T T T"
Pb       1.19713464       1.39376265      -0.03118845        0       2.00000000       2.00000000       0.00097321       0.00111565       0.00680482
Pb       4.70405834      10.25858233       0.02011401        0       2.00000000       2.00000000      -0.00072391       0.00486706       0.00192459
Pb       1.77289510       7.29528374       0.01971342        0       2.00000000       2.00000000      -0.00193237       0.00196403       0.00096058
Pb       4.11765291       4.38212461      -0.03396182        0       2.00000000       2.00000000      -0.00000250       0.00437856       0.00635044
Pb       1.21334906       1.48338470       4.06929649        4       2.00000000       2.00000000       0.00289728       0.00325907       0.00702821
Pb       4.62578177      10.22403067       4.08949494        4       2.00000000       2.00000000       0.00141736       0.00256433       0.00233885
Pb       1.73945557       7.35278166       4.08897237        4       2.00000000       2.00000000      -0.00281538       0.00249550       0.00322909
Pb       4.19527375       4.32752957       4.07199422        4       2.00000000       2.00000000      -0.00063234       0.00391147       0.00419280
Zr       4.35543198       1.44995666       2.03091351        8       4.00000000       4.00000000       0.00094437       0.00100874       0.00167128
Zr       1.50837896      10.28295310       6.12767006        8       4.00000000       4.00000000       0.00091789       0.00123183       0.00096052
Zr       1.51194004      10.28923688       2.04702879        8       4.00000000       4.00000000       0.00025000       0.00028435       0.00033778
Zr       4.35359227       1.44360717       6.13291033        8       4.00000000       4.00000000       0.00110351       0.00175805       0.00117769
Zr       4.46342117       7.32914686       6.13764214        8       4.00000000       4.00000000      -0.00091680       0.00124832       0.00039619
Zr       1.43333037       4.40048094       2.04102329        8       4.00000000       4.00000000      -0.00048470       0.00042664       0.00082568
Zr       1.43097676       4.40521523       6.12402102        8       4.00000000       4.00000000      -0.00047131       0.00078318       0.00136069
Zr       4.46688507       7.32356388       2.03790382        8       4.00000000       4.00000000      -0.00144690       0.00121245       0.00062519
O        4.51847818       1.87485668      -0.00140338       16      -2.00000000      -2.00000000       0.00385703       0.00123025       0.00012577
O        1.28406901       9.94081700       0.00159691       16      -2.00000000      -2.00000000       0.00158594      -0.00290106      -0.00043566
O        4.25861824       7.74375507       0.00170278       16      -2.00000000      -2.00000000      -0.00163621       0.00027868      -0.00027726
O        1.63197411       4.04216009      -0.00091844       16      -2.00000000      -2.00000000      -0.00272680      -0.00233573      -0.00016869
O        4.67641531       1.11751654       4.08745252       20      -2.00000000      -2.00000000       0.00180271      -0.00378896      -0.00044170
O        1.14122972      10.66583318       4.08682505       20      -2.00000000      -2.00000000       0.00147166       0.00154073      -0.00055862
O        4.11785844       7.01548932       4.08679928       20      -2.00000000      -2.00000000      -0.00253662      -0.00400895      -0.00043613
O        1.77396802       4.79199337       4.08780271       20      -2.00000000      -2.00000000      -0.00024546       0.00066111      -0.00054882
O        3.10934680       3.07524285       2.31439551       24      -2.00000000      -2.00000000       0.00430471       0.00298179      -0.00276928
O        2.76249012       8.71303165       5.87049541       24      -2.00000000      -2.00000000       0.00023579      -0.00034975      -0.00296575
O        2.73532352       8.68646775       2.29397164       24      -2.00000000      -2.00000000      -0.00158750      -0.00154131      -0.00016306
O        3.15739115       3.11770383       5.88794336       24      -2.00000000      -2.00000000      -0.00432588      -0.00374211      -0.00390056
O        5.66673188       8.97738865       5.88653564       24      -2.00000000      -2.00000000       0.00250161      -0.00220174      -0.00407667
O        0.14182502       2.85024644       2.32879683       24      -2.00000000      -2.00000000       0.00639133      -0.00641774      -0.00098694
O        0.18964806       2.80555367       5.86862015       24      -2.00000000      -2.00000000      -0.00261044       0.00217012      -0.00549274
O        5.63943094       9.00403233       2.27511833       24      -2.00000000      -2.00000000       0.00070296      -0.00173127       0.00089503
O        2.94716561       5.89334020       1.66024266       32      -2.00000000      -2.00000000      -0.00170358      -0.00060780      -0.00394736
O        2.91886534       5.91694584       6.51643815       32      -2.00000000      -2.00000000      -0.00079732      -0.00103095       0.00021248
O       -0.02295855       0.00760509       6.52183334       32      -2.00000000      -2.00000000       0.00245648       0.00024318      -0.00008136
O        0.00940787       0.03541408       1.65925610       32      -2.00000000      -2.00000000      -0.00312302      -0.00487873      -0.00504101
O        2.91242687       0.01212492       1.87323365       36      -2.00000000      -2.00000000      -0.00080369       0.00147192      -0.00543486
O        2.86499736       0.05653934       6.30364464       36      -2.00000000      -2.00000000       0.00478979      -0.00291921       0.00032067
O        0.00022835       5.87218356       6.30458438       36      -2.00000000      -2.00000000      -0.00197147      -0.00042736      -0.00118266
O        0.04640789       5.91708208       1.87669151       36      -2.00000000      -2.00000000      -0.00510945      -0.00420435      -0.00282922
40
Lattice="5.875496553903574 0.0 0.0 -0.009023434810290264 11.763209762178498 0.0 0.0054384575169168035 0.0006030082579919373 8.178846039747798" Properties=species:S:1:pos:R:3:spacegroup_kinds:I:1:field_charges:R:1:initial_charges:R:1:forces:R:3 spacegroup="P b a m" unit_cell=conventional occupancy="_JSON {\"0\": {\"Pb\": 1.0}, \"1\": {\"Pb\": 1.0}, \"2\": {\"Pb\": 1.0}, \"3\": {\"Pb\": 1.0}, \"4\": {\"Pb\": 1.0}, \"5\": {\"Pb\": 1.0}, \"6\": {\"Pb\": 1.0}, \"7\": {\"Pb\": 1.0}, \"8\": {\"Zr\": 1.0}, \"9\": {\"Zr\": 1.0}, \"10\": {\"Zr\": 1.0}, \"11\": {\"Zr\": 1.0}, \"12\": {\"Zr\": 1.0}, \"13\": {\"Zr\": 1.0}, \"14\": {\"Zr\": 1.0}, \"15\": {\"Zr\": 1.0}, \"16\": {\"O\": 1.0}, \"17\": {\"O\": 1.0}, \"18\": {\"O\": 1.0}, \"19\": {\"O\": 1.0}, \"20\": {\"O\": 1.0}, \"21\": {\"O\": 1.0}, \"22\": {\"O\": 1.0}, \"23\": {\"O\": 1.0}, \"24\": {\"O\": 1.0}, \"25\": {\"O\": 1.0}, \"26\": {\"O\": 1.0}, \"27\": {\"O\": 1.0}, \"28\": {\"O\": 1.0}, \"29\": {\"O\": 1.0}, \"30\": {\"O\": 1.0}, \"31\": {\"O\": 1.0}, \"32\": {\"O\": 1.0}, \"33\": {\"O\": 1.0}, \"34\": {\"O\": 1.0}, \"35\": {\"O\": 1.0}, \"36\": {\"O\": 1.0}, \"37\": {\"O\": 1.0}, \"38\": {\"O\": 1.0}, \"39\": {\"O\": 1.0}}" neb_image=3 energy=-39205.769973249284 polarization_c_per_m2="_JSON [0.022651371368550444, -0.04767715143822694, -0.03396039152691816]" pbc="T T T"
Pb       1.19274201       1.38729664      -0.06501813        0       2.00000000       2.00000000       0.00232274       0.00032048       0.02381803
Pb       4.71114560      10.23145923       0.00853335        0       2.00000000       2.00000000      -0.00110543       0.01942058       0.01939458
Pb       1.78442604       7.28402322       0.01278725        0       2.00000000       2.00000000      -0.00751949       0.00687969       0.01121359
Pb       4.12026318       4.35829860      -0.06563035        0       2.00000000       2.00000000      -0.00201269       0.01955801       0.02060329
Pb       1.20017839       1.46670284       4.03640069        4       2.00000000       2.00000000       0.00815503       0.01844875       0.03434534
Pb       4.62281597      10.20903920       4.07957149        4       2.00000000       2.00000000       0.00411166       0.01262270       0.01185015
Pb       1.75646121       7.33873304       4.07415718        4       2.00000000       2.00000000      -0.01107283       0.01231905       0.01852083
Pb       4.20310729       4.30687996       4.05346276        4       2.00000000       2.00000000      -0.00210213       0.01743905       0.01334331
Zr       4.35422177       1.44444705       2.02388776        8       4.00000000       4.00000000       0.00334786       0.00426659       0.00592782
Zr       1.50622684      10.27528121       6.12697785        8       4.00000000       4.00000000       0.00156833       0.00357359       0.00433623
Zr       1.51189633      10.28597906       2.04661291        8       4.00000000       4.00000000       0.00138485       0.00230377       0.00303340
Zr       4.35306942       1.43474426       6.13147491        8       4.00000000       4.00000000       0.00254753       0.00570645       0.00465325
Zr       4.47339137       7.32153302       6.13983626        8       4.00000000       4.00000000      -0.00351749       0.00595429       0.00268506
Zr       1.43730483       4.39783871       2.03837187        8       4.00000000       4.00000000      -0.00115128       0.00072337       0.00296140
Zr       1.43641854       4.40061556       6.12151417        8       4.00000000       4.00000000      -0.00116945       0.00365471       0.00450244
Zr       4.47817115       7.31621825       2.03587580        8       4.00000000       4.00000000      -0.00447396       0.00390442       0.00316968
O        4.50237785       1.86833760      -0.00195118       16      -2.00000000      -2.00000000       0.01607870       0.00661940      -0.00032018
O        1.27612856       9.95410972       0.00377340       16      -2.00000000      -2.00000000       0.00684404      -0.01288533      -0.00169465
O        4.27032818       7.74082271       0.00302735       16      -2.00000000      -2.00000000      -0.00510374       0.00256099      -0.00080595
O        1.64718923       4.05364668       0.00006459       16      -2.00000000      -2.00000000      -0.01161410      -0.01141940      -0.00151794
O        4.67172796       1.13697935       4.09276733       20      -2.00000000      -2.00000000       0.00765535      -0.02245495      -0.00207255
O        1.13515920      10.65625963       4.09277495       20      -2.00000000      -2.00000000       0.00324775       0.00694973      -0.00257675
O        4.13494845       7.03553955       4.09211225       20      -2.00000000      -2.00000000      -0.01066698      -0.01925194      -0.00200803
O        1.77819802       4.78791546       4.09370679       20      -2.00000000      -2.00000000       0.00107996       0.00540267      -0.00228808
O        3.09120161       3.06061220       2.32968612       24      -2.00000000      -2.00000000       0.01031364       0.00543640      -0.00631504
O        2.76315842       8.71223970       5.89122103       24      -2.00000000      -2.00000000       0.00189493      -0.00009943      -0.01550264
O        2.74747808       8.69462073       2.29694937       24      -2.00000000      -2.00000000      -0.01129514      -0.01151845      -0.00181323
O        3.18353297       3.13642114       5.91252060       24      -2.00000000      -2.00000000      -0.01039491      -0.00943608      -0.01495796
O        5.65792937       8.98904188       5.91269326       24      -2.00000000      -2.00000000       0.01092033      -0.01003202      -0.01888098
O        0.11032297       2.88224400       2.33575723       24      -2.00000000      -2.00000000       0.01730500      -0.01786843       0.00306933
O        0.20436246       2.79498878       5.90065988       24      -2.00000000      -2.00000000      -0.00331807       0.00268943      -0.02816996
O        5.64172866       9.01050690       2.27284861       24      -2.00000000      -2.00000000      -0.00306093      -0.00114684       0.00006083
O        2.95745406       5.89662580       1.68212742       32      -2.00000000      -2.00000000       0.00324135      -0.01063651      -0.02191702
O        2.92808963       5.92089244       6.52043724       32      -2.00000000      -2.00000000      -0.00451965      -0.00268045       0.00257547
O       -0.03296347       0.00752953       6.52722429       32      -2.00000000      -2.00000000       0.00654927      -0.00067550       0.00116851
O        0.02477827       0.05988111       1.68640241       32      -2.00000000      -2.00000000      -0.01079237      -0.01813492      -0.02786594
O        2.91746372       0.00641850       1.90246547       36      -2.00000000      -2.00000000       0.00291985      -0.00070468      -0.02539968
O        2.84543615       0.07087205       6.30698463       36      -2.00000000      -2.00000000       0.01232948      -0.00632830      -0.00093732
O        0.01379842       5.87524000       6.31495404       36      -2.00000000      -2.00000000      -0.01014433      -0.00466218      -0.00409623
O        0.07186274       5.93658809       1.89351345       36      -2.00000000      -2.00000000      -0.00878270      -0.00681867      -0.01209239
40