40
Lattice="5.871972 0.0 0.0 0.0 11.774171 0.0 0.0 0.0 8.178836" Properties=species:S:1:pos:R:3:spacegroup_kinds:I:1:field_charges:R:1:initial_charges:R:1:forces:R:3 spacegroup="P b a m" unit_cell=conventional occupancy="_JSON {\"0\": {\"Pb\": 1.0}, \"1\": {\"Pb\": 1.0}, \"2\": {\"Pb\": 1.0}, \"3\": {\"Pb\": 1.0}, \"4\": {\"Pb\": 1.0}, \"5\": {\"Pb\": 1.0}, \"6\": {\"Pb\": 1.0}, \"7\": {\"Pb\": 1.0}, \"8\": {\"Zr\": 1.0}, \"9\": {\"Zr\": 1.0}, \"10\": {\"Zr\": 1.0}, \"11\": {\"Zr\": 1.0}, \"12\": {\"Zr\": 1.0}, \"13\": {\"Zr\": 1.0}, \"14\": {\"Zr\": 1.0}, \"15\": {\"Zr\": 1.0}, \"16\": {\"O\": 1.0}, \"17\": {\"O\": 1.0}, \"18\": {\"O\": 1.0}, \"19\": {\"O\": 1.0}, \"20\": {\"O\": 1.0}, \"21\": {\"O\": 1.0}, \"22\": {\"O\": 1.0}, \"23\": {\"O\": 1.0}, \"24\": {\"O\": 1.0}, \"25\": {\"O\": 1.0}, \"26\": {\"O\": 1.0}, \"27\": {\"O\": 1.0}, \"28\": {\"O\": 1.0}, \"29\": {\"O\": 1.0}, \"30\": {\"O\": 1.0}, \"31\": {\"O\": 1.0}, \"32\": {\"O\": 1.0}, \"33\": {\"O\": 1.0}, \"34\": {\"O\": 1.0}, \"35\": {\"O\": 1.0}, \"36\": {\"O\": 1.0}, \"37\": {\"O\": 1.0}, \"38\": {\"O\": 1.0}, \"39\": {\"O\": 1.0}}" neb_image=0 energy=-39205.764739708866 polarization_c_per_m2="_JSON [-0.0012611573750599988, 0.0349032942069816, -1.3526432333244794e-15]" pbc="T T T"
Pb       1.17373646       1.45287285      -0.00000000        0       2.00000000       2.00000000       0.01811033      -0.02203254      -0.00000000
Pb       4.69823554      10.32129815      -0.00000000        0       2.00000000       2.00000000       0.02886545      -0.02506414      -0.00000000
Pb       1.76224954       7.33995835      -0.00000000        0       2.00000000       2.00000000       0.02886545      -0.02203254      -0.00000000
Pb       4.10972246       4.43421265      -0.00000000        0       2.00000000       2.00000000       0.01811033      -0.02506414      -0.00000000
Pb       1.22777814       1.51267559       4.08941800        4       2.00000000       2.00000000       0.01833476      -0.01928032       0.00000000
Pb       4.64419386      10.26149541       4.08941800        4       2.00000000       2.00000000       0.02864101      -0.02781637       0.00000000
Pb       1.70820786       7.39976109       4.08941800        4       2.00000000       2.00000000       0.02864101      -0.01928032       0.00000000
Pb       4.16376414       4.37440991       4.08941800        4       2.00000000       2.00000000       0.01833476      -0.02781637       0.00000000
Zr       4.35630128       1.46381254       2.04209901        8       4.00000000       4.00000000       0.04074979      -0.05115421       0.00128299
Zr       1.51567072      10.31035846       6.13673699        8       4.00000000       4.00000000       0.05320176      -0.04303916      -0.00128299
Zr       1.51567072      10.31035846       2.04209901        8       4.00000000       4.00000000       0.05320176      -0.04303916       0.00128299
Zr       4.35630128       1.46381254       6.13673699        8       4.00000000       4.00000000       0.04074979      -0.05115421      -0.00128299
Zr       4.45165672       7.35089804       6.13673699        8       4.00000000       4.00000000       0.05320176      -0.05115421      -0.00128299
Zr       1.42031528       4.42327296       2.04209901        8       4.00000000       4.00000000       0.04074979      -0.04303916       0.00128299
Zr       1.42031528       4.42327296       6.13673699        8       4.00000000       4.00000000       0.04074979      -0.04303916      -0.00128299
Zr       4.45165672       7.35089804       2.04209901        8       4.00000000       4.00000000       0.05320176      -0.05115421       0.00128299
O        4.55672239       1.85661981      -0.00000000       16      -2.00000000      -2.00000000      -0.01967453       0.01834648       0.00000000
O        1.31524961       9.91755119      -0.00000000       16      -2.00000000      -2.00000000      -0.02730124       0.02875020       0.00000000
O        4.25123561       7.74370531      -0.00000000       16      -2.00000000      -2.00000000      -0.02730124       0.01834648       0.00000000
O        1.62073639       4.03046569      -0.00000000       16      -2.00000000      -2.00000000      -0.01967453       0.02875020       0.00000000
O        4.70256932       1.10550087       4.08941800       20      -2.00000000      -2.00000000      -0.01760133       0.03098644      -0.00000000
O        1.16940268      10.66867013       4.08941800       20      -2.00000000      -2.00000000      -0.02937445       0.01611025      -0.00000000
O        4.10538868       6.99258637       4.08941800       20      -2.00000000      -2.00000000      -0.02937445       0.03098644      -0.00000000
O        1.76658332       4.78158463       4.08941800       20      -2.00000000      -2.00000000      -0.01760133       0.01611025      -0.00000000
O        3.12999853       3.08379167       2.30409508       24      -2.00000000      -2.00000000      -0.03345472       0.03894801      -0.00556508
O        2.74197347       8.69037933       5.87474092       24      -2.00000000      -2.00000000      -0.01352106       0.00814867       0.00556508
O        2.74197347       8.69037933       2.30409508       24      -2.00000000      -2.00000000      -0.01352106       0.00814867      -0.00556508
O        3.12999853       3.08379167       5.87474092       24      -2.00000000      -2.00000000      -0.03345472       0.03894801       0.00556508
O        5.67795947       8.97087717       5.87474092       24      -2.00000000      -2.00000000      -0.01352106       0.03894801       0.00556508
O        0.19401253       2.80329383       2.30409508       24      -2.00000000      -2.00000000      -0.03345472       0.00814867      -0.00556508
O        0.19401253       2.80329383       5.87474092       24      -2.00000000      -2.00000000      -0.03345472       0.00814867       0.00556508
O        5.67795947       8.97087717       2.30409508       24      -2.00000000      -2.00000000      -0.01352106       0.03894801      -0.00556508
O        2.93598600       5.88708550       1.65175084       32      -2.00000000      -2.00000000      -0.02348789       0.02354834       0.00096873
O        2.93598600       5.88708550       6.52708516       32      -2.00000000      -2.00000000      -0.02348789       0.02354834      -0.00096873
O        0.00000000       0.00000000       6.52708516       32      -2.00000000      -2.00000000      -0.02348789       0.02354834      -0.00096873
O       -0.00000000       0.00000000       1.65175084       32      -2.00000000      -2.00000000      -0.02348789       0.02354834       0.00096873
O        2.93598600       0.00000000       1.87160782       36      -2.00000000      -2.00000000      -0.02348789       0.02354834       0.00119428
O        2.93598600       0.00000000       6.30722818       36      -2.00000000      -2.00000000      -0.02348789       0.02354834      -0.00119428
O        0.00000000       5.88708550       6.30722818       36      -2.00000000      -2.00000000      -0.02348789       0.02354834      -0.00119428
O        0.00000000       5.88708550       1.87160782       36      -2.00000000      -2.00000000      -0.02348789       0.02354834       0.00119428
40
Lattice="5.86949122208385 0.0 0.0 -0.004862514612399085 11.765906281869409 0.0 -5.349444561010981e-05 -3.750243383299314e-07 8.1715206062203" Properties=species:S:1:pos:R:3:spacegroup_kinds:I:1:field_charges:R:1:initial_charges:R:1:forces:R:3 spacegroup="P b a m" unit_cell=conventional occupancy="_JSON {\"0\": {\"Pb\": 1.0}, \"1\": {\"Pb\": 1.0}, \"2\": {\"Pb\": 1.0}, \"3\": {\"Pb\": 1.0}, \"4\": {\"Pb\": 1.0}, \"5\": {\"Pb\": 1.0}, \"6\": {\"Pb\": 1.0}, \"7\": {\"Pb\": 1.0}, \"8\": {\"Zr\": 1.0}, \"9\": {\"Zr\": 1.0}, \"10\": {\"Zr\": 1.0}, \"11\": {\"Zr\": 1.0}, \"12\": {\"Zr\": 1.0}, \"13\": {\"Zr\": 1.0}, \"14\": {\"Zr\": 1.0}, \"15\": {\"Zr\": 1.0}, \"16\": {\"O\": 1.0}, \"17\": {\"O\": 1.0}, \"18\": {\"O\": 1.0}, \"19\": {\"O\": 1.0}, \"20\": {\"O\": 1.0}, \"21\": {\"O\": 1.0}, \"22\": {\"O\": 1.0}, \"23\": {\"O\": 1.0}, \"24\": {\"O\": 1.0}, \"25\": {\"O\": 1.0}, \"26\": {\"O\": 1.0}, \"27\": {\"O\": 1.0}, \"28\": {\"O\": 1.0}, \"29\": {\"O\": 1.0}, \"30\": {\"O\": 1.0}, \"31\": {\"O\": 1.0}, \"32\": {\"O\": 1.0}, \"33\": {\"O\": 1.0}, \"34\": {\"O\": 1.0}, \"35\": {\"O\": 1.0}, \"36\": {\"O\": 1.0}, \"37\": {\"O\": 1.0}, \"38\": {\"O\": 1.0}, \"39\": {\"O\": 1.0}}" neb_image=1 energy=-39205.78206577487 polarization_c_per_m2="_JSON [0.02035482460762691, -0.007552118416889285, 7.104366131715771e-05]" pbc="T T T"
Pb       1.19196698       1.41286079       0.00053426        0       2.00000000       2.00000000       0.00406546      -0.00826682      -0.00007240
Pb       4.70479621      10.27814383      -0.00045167        0       2.00000000       2.00000000       0.00267508      -0.00761755       0.00001454
Pb       1.76975225       7.30644463      -0.00043468        0       2.00000000       2.00000000       0.00238446      -0.00599824       0.00001682
Pb       4.11710768       4.39838363       0.00058341        0       2.00000000       2.00000000       0.00228495      -0.00694806      -0.00007850
Pb       1.22244655       1.49243647       4.08599523        4       2.00000000       2.00000000      -0.00094395      -0.00406739      -0.00005735
Pb       4.63361502      10.23380957       4.08565037        4       2.00000000       2.00000000      -0.00095940      -0.00434567      -0.00000983
Pb       1.72871018       7.36578361       4.08564825        4       2.00000000       2.00000000       0.00515134      -0.00608894      -0.00001445
Pb       4.18572838       4.34240908       4.08597502        4       2.00000000       2.00000000       0.00538802      -0.00613231      -0.00004311
Zr       4.35574271       1.45165645       2.03684651        8       4.00000000       4.00000000       0.00037893      -0.00233730      -0.00075366
Zr       1.51424344      10.29140586       6.12758063        8       4.00000000       4.00000000       0.00069705      -0.00249556      -0.00077391
Zr       1.51417824      10.29129211       2.04387453        8       4.00000000       4.00000000       0.00070725      -0.00248272       0.00076832
Zr       4.35578819       1.45177697       6.13480535        8       4.00000000       4.00000000       0.00037553      -0.00234862       0.00072583
Zr       4.45932579       7.33191930       6.13419655        8       4.00000000       4.00000000       0.00265875      -0.00290552       0.00063060
Zr       1.42812714       4.40702987       2.04329682        8       4.00000000       4.00000000       0.00217246      -0.00278162       0.00061744
Zr       1.42818369       4.40692310       6.12834430        8       4.00000000       4.00000000       0.00216852      -0.00277844      -0.00063938
Zr       4.45926101       7.33203505       2.03724915        8       4.00000000       4.00000000       0.00266841      -0.00291236      -0.00063269
O        4.53338432       1.87329980       0.00002659       16      -2.00000000      -2.00000000      -0.00441732       0.00376121      -0.00000253
O        1.29436715       9.93185239      -0.00002612       16      -2.00000000      -2.00000000      -0.00343916       0.00450009       0.00000411
O        4.25046759       7.74404103      -0.00002852       16      -2.00000000      -2.00000000       0.00095167       0.00120517       0.00000417
O        1.62337178       4.03709980       0.00002305       16      -2.00000000      -2.00000000       0.00110996       0.00201314       0.00000004
O        4.68340337       1.11456161       4.08574529       20      -2.00000000      -2.00000000      -0.00355048       0.00207885       0.00000323
O        1.14918066      10.66898326       4.08576153       20      -2.00000000      -2.00000000      -0.00323227       0.00161708       0.00000345
O        4.10836444       7.00370239       4.08576057       20      -2.00000000      -2.00000000       0.00165872       0.00342166       0.00000298
O        1.76977164       4.78883004       4.08574142       20      -2.00000000      -2.00000000       0.00126562       0.00222683       0.00000470
O        3.13271204       3.09531242       2.29785176       24      -2.00000000      -2.00000000       0.00097934       0.00275188      -0.00078481
O        2.74578041       8.69561821       5.86938571       24      -2.00000000      -2.00000000       0.00189843       0.00248060      -0.00001805
O        2.74639358       8.69620391       2.30238126       24      -2.00000000      -2.00000000       0.00188201       0.00245776       0.00002946
O        3.13189766       3.09456716       5.87319532       24      -2.00000000      -2.00000000       0.00109053       0.00284504       0.00086292
O        5.65997204       8.98189422       5.88301699       24      -2.00000000      -2.00000000      -0.00244048       0.00359673       0.00284276
O        0.17674954       2.81593769       2.31239042       24      -2.00000000      -2.00000000      -0.00354893       0.00325508       0.00225093
O        0.17594263       2.81669340       5.85872890       24      -2.00000000      -2.00000000      -0.00343719       0.00314832      -0.00218804
O        5.66058614       8.98131317       2.28879683       24      -2.00000000      -2.00000000      -0.00245747       0.00362166      -0.00283817
O        2.92570933       5.90289474       1.65384101       32      -2.00000000      -2.00000000      -0.00125099       0.00412177       0.00079057
O        2.92628261       5.90241804       6.51766041       32      -2.00000000      -2.00000000      -0.00129412       0.00415489      -0.00076758
O       -0.00710444       0.01312987       6.52014526       32      -2.00000000      -2.00000000      -0.00158956       0.00270962      -0.00022697
O       -0.00769283       0.01263555       1.65129660       32      -2.00000000      -2.00000000      -0.00152037       0.00276920       0.00026503
O        2.89988101       0.02686689       1.86856721       36      -2.00000000      -2.00000000      -0.00723651       0.00554348      -0.00025870
O        2.90078047       0.02601650       6.30294123       36      -2.00000000      -2.00000000      -0.00732437       0.00561997       0.00028536
O        0.00709713       5.88449478       6.30117749       36      -2.00000000      -2.00000000       0.00197708       0.00026559      -0.00007106
O        0.00618909       5.88362989       1.87025547       36      -2.00000000      -2.00000000       0.00205299       0.00034149       0.00010793
40
Lattice="5.871004467935101 0.0 0.0 -0.008685383162803961 11.76523384838299 0.0 0.0030153817604589937 3.655852806038171e-05 8.172858763036048" Properties=species:S:1:pos:R:3:spacegroup_kinds:I:1:field_charges:R:1:initial_charges:R:1:forces:R:3 spacegroup="P b a m" unit_cell=conventional occupancy="_JSON {\"0\": {\"Pb\": 1.0}, \"1\": {\"Pb\": 1.0}, \"2\": {\"Pb\": 1.0}, \"3\": {\"Pb\": 1.0}, \"4\": {\"Pb\": 1.0}, \"5\": {\"Pb\": 1.0}, \"6\": {\"Pb\": 1.0}, \"7\": {\"Pb\": 1.0}, \"8\": {\"Zr\": 1.0}, \"9\": {\"Zr\": 1.0}, \"10\": {\"Zr\": 1.0}, \"11\": {\"Zr\": 1.0}, \"12\": {\"Zr\": 1.0}, \"13\": {\"Zr\": 1.0}, \"14\": {\"Zr\": 1.0}, \"15\": {\"Zr\": 1.0}, \"16\": {\"O\": 1.0}, \"17\": {\"O\": 1.0}, \"18\": {\"O\": 1.0}, \"19\": {\"O\": 1.0}, \"20\": {\"O\": 1.0}, \"21\": {\"O\": 1.0}, \"22\": {\"O\": 1.0}, \"23\": {\"O\": 1.0}, \"24\": {\"O\": 1.0}, \"25\": {\"O\": 1.0}, \"26\": {\"O\": 1.0}, \"27\": {\"O\": 1.0}, \"28\": {\"O\": 1.0}, \"29\": {\"O\": 1.0}, \"30\": {\"O\": 1.0}, \"31\": {\"O\": 1.0}, \"32\": {\"O\": 1.0}, \"33\": {\"O\": 1.0}, \"34\": {\"O\": 1.0}, \"35\": {\"O\": 1.0}, \"36\": {\"O\": 1.0}, \"37\": {\"O\": 1.0}, \"38\": {\"O\": 1.0}, \"39\": {\"O\": 1.0}}" neb_image=2 energy=-39205.78145446806 polarization_c_per_m2="_JSON [0.023074925683807722, -0.026536425914359705, -0.008137039666626645]" pbc="T T T"
Pb       1.19706413       1.39364039      -0.03120208        0       2.00000000       2.00000000       0.00104917       0.00114467       0.00691423
Pb       4.70405448      10.25835477       0.01975593        0       2.00000000       2.00000000      -0.00073502       0.00501148       0.00210564
Pb       1.77299649       7.29524081       0.01933906        0       2.00000000       2.00000000      -0.00203271       0.00195770       0.00114392
Pb       4.11758452       4.38189746      -0.03399058        0       2.00000000       2.00000000       0.00002949       0.00453628       0.00650239
Pb       1.21318864       1.48328940       4.06912655        4       2.00000000       2.00000000       0.00299077       0.00333327       0.00721618
Pb       4.62567229      10.22389388       4.08928120        4       2.00000000       2.00000000       0.00143825       0.00266563       0.00246677
Pb       1.73953126       7.35265330       4.08867745        4       2.00000000       2.00000000      -0.00289870       0.00258644       0.00344740
Pb       4.19533888       4.32738049       4.07188255        4       2.00000000       2.00000000      -0.00067007       0.00400303       0.00432093
Zr       4.35538281       1.44988520       2.03087939        8       4.00000000       4.00000000       0.00098250       0.00104268       0.00170785
Zr       1.50826849      10.28290811       6.12761878        8       4.00000000       4.00000000       0.00093923       0.00125926       0.00100126
Zr       1.51183207      10.28919197       2.04699388        8       4.00000000       4.00000000       0.00026378       0.00028895       0.00036555
Zr       4.35358556       1.44354882       6.13291587        8       4.00000000       4.00000000       0.00112840       0.00180682       0.00120968
Zr       4.46346745       7.32904138       6.13760341        8       4.00000000       4.00000000      -0.00094992       0.00130487       0.00043618
Zr       1.43330816       4.40049556       2.04102034        8       4.00000000       4.00000000      -0.00049559       0.00041931       0.00085012
Zr       1.43100727       4.40514637       6.12399921        8       4.00000000       4.00000000      -0.00049369       0.00081341       0.00140354
Zr       4.46691685       7.32352417       2.03784002        8       4.00000000       4.00000000      -0.00148322       0.00124301       0.00066642
O        4.51843672       1.87483660      -0.00139010       16      -2.00000000      -2.00000000       0.00387565       0.00125195       0.00012162
O        1.28387695       9.94092184       0.00160026       16      -2.00000000      -2.00000000       0.00166386      -0.00298254      -0.00044527
O        4.25869232       7.74371411       0.00169443       16      -2.00000000      -2.00000000      -0.00169130       0.00032143      -0.00027754
O        1.63205051       4.04226211      -0.00089301       16      -2.00000000      -2.00000000      -0.00278537      -0.00241947      -0.00018244
O        4.67635199       1.11760934       4.08748852       20      -2.00000000      -2.00000000       0.00186757      -0.00389599      -0.00045863
O        1.14106684      10.66574691       4.08687117       20      -2.00000000      -2.00000000       0.00150588       0.00159969      -0.00058006
O        4.11789658       7.01568802       4.08684012       20      -2.00000000      -2.00000000      -0.00258628      -0.00417532      -0.00045355
O        1.77404236       4.79195495       4.08784856       20      -2.00000000      -2.00000000      -0.00029191       0.00071430      -0.00057331
O        3.10936900       3.07531279       2.31439105       24      -2.00000000      -2.00000000       0.00434615       0.00299033      -0.00278625
O        2.76212954       8.71276560       5.87082477       24      -2.00000000      -2.00000000       0.00035284      -0.00025875      -0.00316513
O        2.73556757       8.68676259       2.29405021       24      -2.00000000      -2.00000000      -0.00172669      -0.00169181      -0.00017415
O        3.15748073       3.11773789       5.88811254       24      -2.00000000      -2.00000000      -0.00445852      -0.00383841      -0.00406425
O        5.66631299       8.97771788       5.88685058       24      -2.00000000      -2.00000000       0.00266351      -0.00232865      -0.00424013
O        0.14169979       2.85034953       2.32887749       24      -2.00000000      -2.00000000       0.00649745      -0.00652956      -0.00103638
O        0.18960585       2.80561052       5.86871601       24      -2.00000000      -2.00000000      -0.00267857       0.00221389      -0.00561721
O        5.63957512       9.00391870       2.27520054       24      -2.00000000      -2.00000000       0.00063282      -0.00169914       0.00086561
O        2.94703381       5.89352337       1.66043461       32      -2.00000000      -2.00000000      -0.00164394      -0.00071972      -0.00412718
O        2.91907384       5.91682650       6.51651047       32      -2.00000000      -2.00000000      -0.00086535      -0.00102017       0.00020545
O       -0.02290157       0.00773351       6.52188791       32      -2.00000000      -2.00000000       0.00249235       0.00022930      -0.00009002
O        0.00932447       0.03546375       1.65943153       32      -2.00000000      -2.00000000      -0.00314317      -0.00496800      -0.00520292
O        2.91217177       0.01235346       1.87340138       36      -2.00000000      -2.00000000      -0.00072607       0.00140748      -0.00556187
O        2.86505456       0.05642419       6.30372013       36      -2.00000000      -2.00000000       0.00484948      -0.00292719       0.00029055
O        0.00055265       5.87245053       6.30458593       36      -2.00000000      -2.00000000      -0.00208384      -0.00048298      -0.00117554
O        0.04632589       5.91701696       1.87694383       36      -2.00000000      -2.00000000      -0.00512923      -0.00420748      -0.00302950
40
Lattice="5.875588170047855 0.0 0.0 -0.009330943306293488 11.763191431860026 0.0 0.005356338702251447 0.0006242924813061412 8.178941598322576" Properties=species:S:1:pos:R:3:spacegroup_kinds:I:1:field_charges:R:1:initial_charges:R:1:forces:R:3 spacegroup="P b a m" unit_cell=conventional occupancy="_JSON {\"0\": {\"Pb\": 1.0}, \"1\": {\"Pb\": 1.0}, \"2\": {\"Pb\": 1.0}, \"3\": {\"Pb\": 1.0}, \"4\": {\"Pb\": 1.0}, \"5\": {\"Pb\": 1.0}, \"6\": {\"Pb\": 1.0}, \"7\": {\"Pb\": 1.0}, \"8\": {\"Zr\": 1.0}, \"9\": {\"Zr\": 1.0}, \"10\": {\"Zr\": 1.0}, \"11\": {\"Zr\": 1.0}, \"12\": {\"Zr\": 1.0}, \"13\": {\"Zr\": 1.0}, \"14\": {\"Zr\": 1.0}, \"15\": {\"Zr\": 1.0}, \"16\": {\"O\": 1.0}, \"17\": {\"O\": 1.0}, \"18\": {\"O\": 1.0}, \"19\": {\"O\": 1.0}, \"20\": {\"O\": 1.0}, \"21\": {\"O\": 1.0}, \"22\": {\"O\": 1.0}, \"23\": {\"O\": 1.0}, \"24\": {\"O\": 1.0}, \"25\": {\"O\": 1.0}, \"26\": {\"O\": 1.0}, \"27\": {\"O\": 1.0}, \"28\": {\"O\": 1.0}, \"29\": {\"O\": 1.0}, \"30\": {\"O\": 1.0}, \"31\": {\"O\": 1.0}, \"32\": {\"O\": 1.0}, \"33\": {\"O\": 1.0}, \"34\": {\"O\": 1.0}, \"35\": {\"O\": 1.0}, \"36\": {\"O\": 1.0}, \"37\": {\"O\": 1.0}, \"38\": {\"O\": 1.0}, \"39\": {\"O\": 1.0}}" neb_image=3 energy=-39205.76979252418 polarization_c_per_m2="_JSON [0.022651359231347482, -0.04780973491933454, -0.03449274085634972]" pbc="T T T"
Pb       1.19248848       1.38717054      -0.06468484        0       2.00000000       2.00000000       0.00259893       0.00026598       0.02381343
Pb       4.71093378      10.23106060       0.00753797        0       2.00000000       2.00000000      -0.00100018       0.01953906       0.01972531
Pb       1.78464014       7.28441896       0.01172091        0       2.00000000       2.00000000      -0.00774085       0.00648970       0.01173408
Pb       4.12003724       4.35811064      -0.06558309        0       2.00000000       2.00000000      -0.00196929       0.01969818       0.02093179
Pb       1.19987092       1.46675078       4.03621355        4       2.00000000       2.00000000       0.00825869       0.01841819       0.03447455
Pb       4.62257731      10.20892015       4.07912373        4       2.00000000       2.00000000       0.00403697       0.01277157       0.01202239
Pb       1.75626544       7.33846692       4.07332867        4       2.00000000       2.00000000      -0.01105365       0.01257702       0.01917779
Pb       4.20310828       4.30671401       4.05332973        4       2.00000000       2.00000000      -0.00214490       0.01741979       0.01358585
Zr       4.35414349       1.44434501       2.02389135        8       4.00000000       4.00000000       0.00338883       0.00428527       0.00592977
Zr       1.50592848      10.27528433       6.12691987        8       4.00000000       4.00000000       0.00157951       0.00357716       0.00437031
Zr       1.51157416      10.28593725       2.04650469        8       4.00000000       4.00000000       0.00140731       0.00225970       0.00309269
Zr       4.35307405       1.43471062       6.13153446        8       4.00000000       4.00000000       0.00257542       0.00576017       0.00470456
Zr       4.47328355       7.32137718       6.13969014        8       4.00000000       4.00000000      -0.00353050       0.00600942       0.00280282
Zr       1.43717593       4.39798374       2.03836344        8       4.00000000       4.00000000      -0.00117558       0.00068722       0.00303820
Zr       1.43633846       4.40054968       6.12151904        8       4.00000000       4.00000000      -0.00118346       0.00366197       0.00456041
Zr       4.47803544       7.31623359       2.03575330        8       4.00000000       4.00000000      -0.00448485       0.00391399       0.00324459
O        4.50283742       1.86834614      -0.00190201       16      -2.00000000      -2.00000000       0.01574003       0.00662277      -0.00033718
O        1.27563121       9.95423187       0.00377695       16      -2.00000000      -2.00000000       0.00703067      -0.01293572      -0.00171497
O        4.27031569       7.74062058       0.00299298       16      -2.00000000      -2.00000000      -0.00521318       0.00277858      -0.00080709
O        1.64702730       4.05381669       0.00013092       16      -2.00000000      -2.00000000      -0.01160161      -0.01152690      -0.00154633
O        4.67156884       1.13694280       4.09285074       20      -2.00000000      -2.00000000       0.00774564      -0.02250209      -0.00210250
O        1.13482898      10.65588232       4.09288131       20      -2.00000000      -2.00000000       0.00319604       0.00708775      -0.00260667
O        4.13470696       7.03620404       4.09220785       20      -2.00000000      -2.00000000      -0.01064200      -0.01972051      -0.00204139
O        1.77828620       4.78788415       4.09381929       20      -2.00000000      -2.00000000       0.00101953       0.00556188      -0.00233815
O        3.09126580       3.06074570       2.32960101       24      -2.00000000      -2.00000000       0.01031967       0.00544727      -0.00628855
O        2.76191071       8.71131428       5.89235009       24      -2.00000000      -2.00000000       0.00214209       0.00012870      -0.01618744
O        2.74767696       8.69506962       2.29683447       24      -2.00000000      -2.00000000      -0.01142001      -0.01169278      -0.00160588
O        3.18333600       3.13619147       5.91282604       24      -2.00000000      -2.00000000      -0.01056939      -0.00952910      -0.01525281
O        5.65674739       8.98984020       5.91348789       24      -2.00000000      -2.00000000       0.01109869      -0.01013242      -0.01905949
O        0.11024668       2.88228087       2.33614033       24      -2.00000000      -2.00000000       0.01732521      -0.01790592       0.00290355
O        0.20397196       2.79535785       5.90046778       24      -2.00000000      -2.00000000      -0.00342267       0.00275360      -0.02821767
O        5.64187384       9.01027105       2.27299821       24      -2.00000000      -2.00000000      -0.00318365      -0.00106433      -0.00003940
O        2.95698189       5.89698284       1.68261344       32      -2.00000000      -2.00000000       0.00343016      -0.01083014      -0.02245852
O        2.92853830       5.92041366       6.52065350       32      -2.00000000      -2.00000000      -0.00463134      -0.00258718       0.00258597
O       -0.03254462       0.00796829       6.52729477       32      -2.00000000      -2.00000000       0.00658044      -0.00064879       0.00117392
O        0.02478046       0.06003619       1.68682060       32      -2.00000000      -2.00000000      -0.01084068      -0.01823823      -0.02812174
O        2.91717484       0.00673841       1.90257613       36      -2.00000000      -2.00000000       0.00293485      -0.00075478      -0.02537668
O        2.84609987       0.07015931       6.30729918       36      -2.00000000      -2.00000000       0.01228632      -0.00625039      -0.00104097
O        0.01431322       5.87586546       6.31480798       36      -2.00000000      -2.00000000      -0.01021250      -0.00467810      -0.00399545
O        0.07128048       5.93623622       1.89437288       36      -2.00000000      -2.00000000      -0.00867471      -0.00671757      -0.01273310
40