40
Lattice="5.871972 0.0 0.0 0.0 11.774171 0.0 0.0 0.0 8.178836" Properties=species:S:1:pos:R:3:spacegroup_kinds:I:1:field_charges:R:1:initial_charges:R:1:forces:R:3 spacegroup="P b a m" unit_cell=conventional occupancy="_JSON {\"0\": {\"Pb\": 1.0}, \"1\": {\"Pb\": 1.0}, \"2\": {\"Pb\": 1.0}, \"3\": {\"Pb\": 1.0}, \"4\": {\"Pb\": 1.0}, \"5\": {\"Pb\": 1.0}, \"6\": {\"Pb\": 1.0}, \"7\": {\"Pb\": 1.0}, \"8\": {\"Zr\": 1.0}, \"9\": {\"Zr\": 1.0}, \"10\": {\"Zr\": 1.0}, \"11\": {\"Zr\": 1.0}, \"12\": {\"Zr\": 1.0}, \"13\": {\"Zr\": 1.0}, \"14\": {\"Zr\": 1.0}, \"15\": {\"Zr\": 1.0}, \"16\": {\"O\": 1.0}, \"17\": {\"O\": 1.0}, \"18\": {\"O\": 1.0}, \"19\": {\"O\": 1.0}, \"20\": {\"O\": 1.0}, \"21\": {\"O\": 1.0}, \"22\": {\"O\": 1.0}, \"23\": {\"O\": 1.0}, \"24\": {\"O\": 1.0}, \"25\": {\"O\": 1.0}, \"26\": {\"O\": 1.0}, \"27\": {\"O\": 1.0}, \"28\": {\"O\": 1.0}, \"29\": {\"O\": 1.0}, \"30\": {\"O\": 1.0}, \"31\": {\"O\": 1.0}, \"32\": {\"O\": 1.0}, \"33\": {\"O\": 1.0}, \"34\": {\"O\": 1.0}, \"35\": {\"O\": 1.0}, \"36\": {\"O\": 1.0}, \"37\": {\"O\": 1.0}, \"38\": {\"O\": 1.0}, \"39\": {\"O\": 1.0}}" neb_image=0 energy=-39205.764739708866 polarization_c_per_m2="_JSON [-0.0012611573750599988, 0.0349032942069816, -1.3526432333244794e-15]" pbc="T T T"
Pb       1.17373646       1.45287285      -0.00000000        0       2.00000000       2.00000000       0.01811033      -0.02203254      -0.00000000
Pb       4.69823554      10.32129815      -0.00000000        0       2.00000000       2.00000000       0.02886545      -0.02506414      -0.00000000
Pb       1.76224954       7.33995835      -0.00000000        0       2.00000000       2.00000000       0.02886545      -0.02203254      -0.00000000
Pb       4.10972246       4.43421265      -0.00000000        0       2.00000000       2.00000000       0.01811033      -0.02506414      -0.00000000
Pb       1.22777814       1.51267559       4.08941800        4       2.00000000       2.00000000       0.01833476      -0.01928032       0.00000000
Pb       4.64419386      10.26149541       4.08941800        4       2.00000000       2.00000000       0.02864101      -0.02781637       0.00000000
Pb       1.70820786       7.39976109       4.08941800        4       2.00000000       2.00000000       0.02864101      -0.01928032       0.00000000
Pb       4.16376414       4.37440991       4.08941800        4       2.00000000       2.00000000       0.01833476      -0.02781637       0.00000000
Zr       4.35630128       1.46381254       2.04209901        8       4.00000000       4.00000000       0.04074979      -0.05115421       0.00128299
Zr       1.51567072      10.31035846       6.13673699        8       4.00000000       4.00000000       0.05320176      -0.04303916      -0.00128299
Zr       1.51567072      10.31035846       2.04209901        8       4.00000000       4.00000000       0.05320176      -0.04303916       0.00128299
Zr       4.35630128       1.46381254       6.13673699        8       4.00000000       4.00000000       0.04074979      -0.05115421      -0.00128299
Zr       4.45165672       7.35089804       6.13673699        8       4.00000000       4.00000000       0.05320176      -0.05115421      -0.00128299
Zr       1.42031528       4.42327296       2.04209901        8       4.00000000       4.00000000       0.04074979      -0.04303916       0.00128299
Zr       1.42031528       4.42327296       6.13673699        8       4.00000000       4.00000000       0.04074979      -0.04303916      -0.00128299
Zr       4.45165672       7.35089804       2.04209901        8       4.00000000       4.00000000       0.05320176      -0.05115421       0.00128299
O        4.55672239       1.85661981      -0.00000000       16      -2.00000000      -2.00000000      -0.01967453       0.01834648       0.00000000
O        1.31524961       9.91755119      -0.00000000       16      -2.00000000      -2.00000000      -0.02730124       0.02875020       0.00000000
O        4.25123561       7.74370531      -0.00000000       16      -2.00000000      -2.00000000      -0.02730124       0.01834648       0.00000000
O        1.62073639       4.03046569      -0.00000000       16      -2.00000000      -2.00000000      -0.01967453       0.02875020       0.00000000
O        4.70256932       1.10550087       4.08941800       20      -2.00000000      -2.00000000      -0.01760133       0.03098644      -0.00000000
O        1.16940268      10.66867013       4.08941800       20      -2.00000000      -2.00000000      -0.02937445       0.01611025      -0.00000000
O        4.10538868       6.99258637       4.08941800       20      -2.00000000      -2.00000000      -0.02937445       0.03098644      -0.00000000
O        1.76658332       4.78158463       4.08941800       20      -2.00000000      -2.00000000      -0.01760133       0.01611025      -0.00000000
O        3.12999853       3.08379167       2.30409508       24      -2.00000000      -2.00000000      -0.03345472       0.03894801      -0.00556508
O        2.74197347       8.69037933       5.87474092       24      -2.00000000      -2.00000000      -0.01352106       0.00814867       0.00556508
O        2.74197347       8.69037933       2.30409508       24      -2.00000000      -2.00000000      -0.01352106       0.00814867      -0.00556508
O        3.12999853       3.08379167       5.87474092       24      -2.00000000      -2.00000000      -0.03345472       0.03894801       0.00556508
O        5.67795947       8.97087717       5.87474092       24      -2.00000000      -2.00000000      -0.01352106       0.03894801       0.00556508
O        0.19401253       2.80329383       2.30409508       24      -2.00000000      -2.00000000      -0.03345472       0.00814867      -0.00556508
O        0.19401253       2.80329383       5.87474092       24      -2.00000000      -2.00000000      -0.03345472       0.00814867       0.00556508
O        5.67795947       8.97087717       2.30409508       24      -2.00000000      -2.00000000      -0.01352106       0.03894801      -0.00556508
O        2.93598600       5.88708550       1.65175084       32      -2.00000000      -2.00000000      -0.02348789       0.02354834       0.00096873
O        2.93598600       5.88708550       6.52708516       32      -2.00000000      -2.00000000      -0.02348789       0.02354834      -0.00096873
O        0.00000000       0.00000000       6.52708516       32      -2.00000000      -2.00000000      -0.02348789       0.02354834      -0.00096873
O       -0.00000000       0.00000000       1.65175084       32      -2.00000000      -2.00000000      -0.02348789       0.02354834       0.00096873
O        2.93598600       0.00000000       1.87160782       36      -2.00000000      -2.00000000      -0.02348789       0.02354834       0.00119428
O        2.93598600       0.00000000       6.30722818       36      -2.00000000      -2.00000000      -0.02348789       0.02354834      -0.00119428
O        0.00000000       5.88708550       6.30722818       36      -2.00000000      -2.00000000      -0.02348789       0.02354834      -0.00119428
O        0.00000000       5.88708550       1.87160782       36      -2.00000000      -2.00000000      -0.02348789       0.02354834       0.00119428
40
Lattice="5.86948846492527 0.0 0.0 -0.004821417197625443 11.765905039596776 0.0 -6.405671466819059e-05 -3.0231320670140966e-07 8.171527490479212" Properties=species:S:1:pos:R:3:spacegroup_kinds:I:1:field_charges:R:1:initial_charges:R:1:forces:R:3 spacegroup="P b a m" unit_cell=conventional occupancy="_JSON {\"0\": {\"Pb\": 1.0}, \"1\": {\"Pb\": 1.0}, \"2\": {\"Pb\": 1.0}, \"3\": {\"Pb\": 1.0}, \"4\": {\"Pb\": 1.0}, \"5\": {\"Pb\": 1.0}, \"6\": {\"Pb\": 1.0}, \"7\": {\"Pb\": 1.0}, \"8\": {\"Zr\": 1.0}, \"9\": {\"Zr\": 1.0}, \"10\": {\"Zr\": 1.0}, \"11\": {\"Zr\": 1.0}, \"12\": {\"Zr\": 1.0}, \"13\": {\"Zr\": 1.0}, \"14\": {\"Zr\": 1.0}, \"15\": {\"Zr\": 1.0}, \"16\": {\"O\": 1.0}, \"17\": {\"O\": 1.0}, \"18\": {\"O\": 1.0}, \"19\": {\"O\": 1.0}, \"20\": {\"O\": 1.0}, \"21\": {\"O\": 1.0}, \"22\": {\"O\": 1.0}, \"23\": {\"O\": 1.0}, \"24\": {\"O\": 1.0}, \"25\": {\"O\": 1.0}, \"26\": {\"O\": 1.0}, \"27\": {\"O\": 1.0}, \"28\": {\"O\": 1.0}, \"29\": {\"O\": 1.0}, \"30\": {\"O\": 1.0}, \"31\": {\"O\": 1.0}, \"32\": {\"O\": 1.0}, \"33\": {\"O\": 1.0}, \"34\": {\"O\": 1.0}, \"35\": {\"O\": 1.0}, \"36\": {\"O\": 1.0}, \"37\": {\"O\": 1.0}, \"38\": {\"O\": 1.0}, \"39\": {\"O\": 1.0}}" neb_image=1 energy=-39205.78204189906 polarization_c_per_m2="_JSON [0.020300354838916037, -0.007363892481700812, 8.629008973363432e-05]" pbc="T T T"
Pb       1.19187622       1.41308815       0.00064090        0       2.00000000       2.00000000       0.00412848      -0.00837918      -0.00008677
Pb       4.70479893      10.27833523      -0.00054080        0       2.00000000       2.00000000       0.00274576      -0.00774814       0.00001737
Pb       1.76974304       7.30656780      -0.00051962        0       2.00000000       2.00000000       0.00244552      -0.00608968       0.00001894
Pb       4.11709511       4.39853703       0.00070016        0       2.00000000       2.00000000       0.00234415      -0.00704774      -0.00009498
Pb       1.22251399       1.49251849       4.08604565        4       2.00000000       2.00000000      -0.00093259      -0.00413460      -0.00006853
Pb       4.63370812      10.23389700       4.08563318        4       2.00000000       2.00000000      -0.00095042      -0.00440978      -0.00001266
Pb       1.72861792       7.36592242       4.08563133        4       2.00000000       2.00000000       0.00523088      -0.00619739      -0.00001891
Pb       4.18561302       4.34255257       4.08602187        4       2.00000000       2.00000000       0.00547392      -0.00624403      -0.00005233
Zr       4.35574985       1.45168606       2.03687995        8       4.00000000       4.00000000       0.00040159      -0.00238354      -0.00076854
Zr       1.51429488      10.29146373       6.12759948        8       4.00000000       4.00000000       0.00072758      -0.00254341      -0.00078628
Zr       1.51421632      10.29132693       2.04385004        8       4.00000000       4.00000000       0.00074020      -0.00252777       0.00077943
Zr       4.35580437       1.45183093       6.13480485        8       4.00000000       4.00000000       0.00039763      -0.00239749       0.00073549
Zr       4.45930400       7.33195987       6.13418182        8       4.00000000       4.00000000       0.00270915      -0.00295886       0.00063863
Zr       1.42809201       4.40708638       2.04329635        8       4.00000000       4.00000000       0.00221615      -0.00283616       0.00062465
Zr       1.42815969       4.40695852       6.12837594        8       4.00000000       4.00000000       0.00221145      -0.00283236      -0.00065137
Zr       4.45922610       7.33209855       2.03725681        8       4.00000000       4.00000000       0.00272082      -0.00296719      -0.00064207
O        4.53349971       1.87323538       0.00003171       16      -2.00000000      -2.00000000      -0.00447777       0.00383666      -0.00000288
O        1.29446757       9.93175591      -0.00003130       16      -2.00000000      -2.00000000      -0.00350259       0.00458478       0.00000494
O        4.25043049       7.74402925      -0.00003405       16      -2.00000000      -2.00000000       0.00093982       0.00123367       0.00000481
O        1.62332171       4.03706352       0.00002749       16      -2.00000000      -2.00000000       0.00109962       0.00205217       0.00000006
O        4.68349027       1.11455967       4.08574551       20      -2.00000000      -2.00000000      -0.00359896       0.00213245       0.00000402
O        1.14928185      10.66898772       4.08576516       20      -2.00000000      -2.00000000      -0.00329374       0.00165112       0.00000415
O        4.10830789       7.00360924       4.08576408       20      -2.00000000      -2.00000000       0.00165729       0.00348933       0.00000359
O        1.76973243       4.78877861       4.08574087       20      -2.00000000      -2.00000000       0.00127341       0.00227923       0.00000587
O        3.13277670       3.09534714       2.29780698       24      -2.00000000      -2.00000000       0.00096849       0.00278292      -0.00078487
O        2.74570655       8.69550892       5.86939815       24      -2.00000000      -2.00000000       0.00190555       0.00249794      -0.00000425
O        2.74643842       8.69620805       2.30242339       24      -2.00000000      -2.00000000       0.00188836       0.00247319       0.00001880
O        3.13179905       3.09445298       5.87315171       24      -2.00000000      -2.00000000       0.00110345       0.00289599       0.00087939
O        5.66000815       8.98185705       5.88296126       24      -2.00000000      -2.00000000      -0.00249425       0.00366936       0.00289733
O        0.17693342       2.81575738       2.31226733       24      -2.00000000      -2.00000000      -0.00362155       0.00331713       0.00228756
O        0.17596474       2.81666436       5.85877740       24      -2.00000000      -2.00000000      -0.00348604       0.00318845      -0.00221064
O        5.66074186       8.98116192       2.28891680       24      -2.00000000      -2.00000000      -0.00251294       0.00369862      -0.00289129
O        2.92565236       5.90287646       1.65381588       32      -2.00000000      -2.00000000      -0.00127404       0.00418568       0.00079797
O        2.92633874       5.90230617       6.51768715       32      -2.00000000      -2.00000000      -0.00132544       0.00422473      -0.00076898
O       -0.00704063       0.01309817       6.52015294       32      -2.00000000      -2.00000000      -0.00161224       0.00275764      -0.00022870
O       -0.00774553       0.01250573       1.65127960       32      -2.00000000      -2.00000000      -0.00152979       0.00282872       0.00027403
O        2.89993753       0.02684516       1.86857564       36      -2.00000000      -2.00000000      -0.00733171       0.00561725      -0.00024820
O        2.90101525       0.02582682       6.30293670       36      -2.00000000      -2.00000000      -0.00743672       0.00570837       0.00028008
O        0.00709894       5.88452853       6.30118039       36      -2.00000000      -2.00000000       0.00198019       0.00025038      -0.00007058
O        0.00601088       5.88349212       1.87024113       36      -2.00000000      -2.00000000       0.00207134       0.00034151       0.00011569
40
Lattice="5.871083216792596 0.0 0.0 -0.008998272374958819 11.765223673897491 0.0 0.0029285820571349473 2.8819602864563588e-05 8.172898982423794" Properties=species:S:1:pos:R:3:spacegroup_kinds:I:1:field_charges:R:1:initial_charges:R:1:forces:R:3 spacegroup="P b a m" unit_cell=conventional occupancy="_JSON {\"0\": {\"Pb\": 1.0}, \"1\": {\"Pb\": 1.0}, \"2\": {\"Pb\": 1.0}, \"3\": {\"Pb\": 1.0}, \"4\": {\"Pb\": 1.0}, \"5\": {\"Pb\": 1.0}, \"6\": {\"Pb\": 1.0}, \"7\": {\"Pb\": 1.0}, \"8\": {\"Zr\": 1.0}, \"9\": {\"Zr\": 1.0}, \"10\": {\"Zr\": 1.0}, \"11\": {\"Zr\": 1.0}, \"12\": {\"Zr\": 1.0}, \"13\": {\"Zr\": 1.0}, \"14\": {\"Zr\": 1.0}, \"15\": {\"Zr\": 1.0}, \"16\": {\"O\": 1.0}, \"17\": {\"O\": 1.0}, \"18\": {\"O\": 1.0}, \"19\": {\"O\": 1.0}, \"20\": {\"O\": 1.0}, \"21\": {\"O\": 1.0}, \"22\": {\"O\": 1.0}, \"23\": {\"O\": 1.0}, \"24\": {\"O\": 1.0}, \"25\": {\"O\": 1.0}, \"26\": {\"O\": 1.0}, \"27\": {\"O\": 1.0}, \"28\": {\"O\": 1.0}, \"29\": {\"O\": 1.0}, \"30\": {\"O\": 1.0}, \"31\": {\"O\": 1.0}, \"32\": {\"O\": 1.0}, \"33\": {\"O\": 1.0}, \"34\": {\"O\": 1.0}, \"35\": {\"O\": 1.0}, \"36\": {\"O\": 1.0}, \"37\": {\"O\": 1.0}, \"38\": {\"O\": 1.0}, \"39\": {\"O\": 1.0}}" neb_image=2 energy=-39205.781436932215 polarization_c_per_m2="_JSON [0.023066507225988138, -0.026735412570335793, -0.008555281011210857]" pbc="T T T"
Pb       1.19702531       1.39321898      -0.03070155        0       2.00000000       2.00000000       0.00123486       0.00119349       0.00692726
Pb       4.70389417      10.25775732       0.01867104        0       2.00000000       2.00000000      -0.00070544       0.00523026       0.00247268
Pb       1.77318362       7.29555692       0.01823770        0       2.00000000       2.00000000      -0.00224783       0.00179221       0.00158232
Pb       4.11735915       4.38192814      -0.03360005        0       2.00000000       2.00000000       0.00016501       0.00473813       0.00669580
Pb       1.21275149       1.48337919       4.06900336        4       2.00000000       2.00000000       0.00316252       0.00334349       0.00742918
Pb       4.62524395      10.22397778       4.08877626        4       2.00000000       2.00000000       0.00145072       0.00278293       0.00269307
Pb       1.73923218       7.35235231       4.08800950        4       2.00000000       2.00000000      -0.00295338       0.00270809       0.00385272
Pb       4.19527975       4.32699356       4.07182504        4       2.00000000       2.00000000      -0.00073785       0.00405758       0.00454833
Zr       4.35527308       1.44970808       2.03083985        8       4.00000000       4.00000000       0.00104475       0.00109402       0.00174443
Zr       1.50793818      10.28287454       6.12749151        8       4.00000000       4.00000000       0.00098237       0.00127381       0.00105978
Zr       1.51147285      10.28904725       2.04689032        8       4.00000000       4.00000000       0.00029120       0.00028574       0.00042315
Zr       4.35359597       1.44350966       6.13299898        8       4.00000000       4.00000000       0.00115020       0.00186602       0.00125027
Zr       4.46338533       7.32887858       6.13741915        8       4.00000000       4.00000000      -0.00099055       0.00140071       0.00053359
Zr       1.43314994       4.40065157       2.04104000        8       4.00000000       4.00000000      -0.00050716       0.00036446       0.00088782
Zr       1.43096713       4.40503630       6.12399375        8       4.00000000       4.00000000      -0.00053325       0.00085975       0.00147875
Zr       4.46678056       7.32357515       2.03772992        8       4.00000000       4.00000000      -0.00152124       0.00127233       0.00074182
O        4.51868692       1.87483110      -0.00133391       16      -2.00000000      -2.00000000       0.00368072       0.00125256       0.00010493
O        1.28338148       9.94107790       0.00159412       16      -2.00000000      -2.00000000       0.00182918      -0.00307060      -0.00046008
O        4.25873332       7.74364314       0.00165905       16      -2.00000000      -2.00000000      -0.00179805       0.00043319      -0.00027003
O        1.63189822       4.04236153      -0.00082540       16      -2.00000000      -2.00000000      -0.00276907      -0.00253818      -0.00020802
O        4.67617934       1.11724872       4.08752419       20      -2.00000000      -2.00000000       0.00197157      -0.00391113      -0.00048344
O        1.14061436      10.66517680       4.08694261       20      -2.00000000      -2.00000000       0.00154823       0.00174701      -0.00061093
O        4.11763140       7.01641411       4.08690092       20      -2.00000000      -2.00000000      -0.00257533      -0.00450428      -0.00047910
O        1.77412276       4.79224847       4.08790444       20      -2.00000000      -2.00000000      -0.00043598       0.00079566      -0.00061575
O        3.10918702       3.07521939       2.31451854       24      -2.00000000      -2.00000000       0.00439934       0.00301950      -0.00276639
O        2.76045515       8.71142154       5.87204560       24      -2.00000000      -2.00000000       0.00071109       0.00004035      -0.00366008
O        2.73555882       8.68695552       2.29380536       24      -2.00000000      -2.00000000      -0.00191617      -0.00190243      -0.00011592
O        3.15681990       3.11705964       5.88792846       24      -2.00000000      -2.00000000      -0.00469318      -0.00398621      -0.00438112
O        5.66462013       8.97901518       5.88791076       24      -2.00000000      -2.00000000       0.00302453      -0.00258405      -0.00451913
O        0.14132518       2.85067993       2.32945046       24      -2.00000000      -2.00000000       0.00663444      -0.00669298      -0.00124204
O        0.18873498       2.80645534       5.86807284       24      -2.00000000      -2.00000000      -0.00280187       0.00227950      -0.00561636
O        5.63946191       9.00392662       2.27511731       24      -2.00000000      -2.00000000       0.00052717      -0.00165147       0.00081131
O        2.94698146       5.89351818       1.66059564       32      -2.00000000      -2.00000000      -0.00159507      -0.00082311      -0.00438606
O        2.92002651       5.91593321       6.51680670       32      -2.00000000      -2.00000000      -0.00100854      -0.00094619       0.00015967
O       -0.02200508       0.00860572       6.52189899       32      -2.00000000      -2.00000000       0.00248526       0.00018915      -0.00011564
O        0.00953861       0.03582586       1.65977392       32      -2.00000000      -2.00000000      -0.00322551      -0.00514237      -0.00543792
O        2.91197343       0.01247775       1.87353307       36      -2.00000000      -2.00000000      -0.00067375       0.00135503      -0.00560805
O        2.86612692       0.05525318       6.30395061       36      -2.00000000      -2.00000000       0.00480935      -0.00282164       0.00020095
O        0.00171291       5.87368902       6.30442729       36      -2.00000000      -2.00000000      -0.00227750      -0.00059586      -0.00106905
O        0.04608800       5.91700359       1.87755705       36      -2.00000000      -2.00000000      -0.00513580      -0.00420446      -0.00355270
40
Lattice="5.87562209648783 0.0 0.0 -0.010058312933522641 11.763004395477456 0.0 0.005052522841184755 0.0006478682027475673 8.17904740017437" Properties=species:S:1:pos:R:3:spacegroup_kinds:I:1:field_charges:R:1:initial_charges:R:1:forces:R:3 spacegroup="P b a m" unit_cell=conventional occupancy="_JSON {\"0\": {\"Pb\": 1.0}, \"1\": {\"Pb\": 1.0}, \"2\": {\"Pb\": 1.0}, \"3\": {\"Pb\": 1.0}, \"4\": {\"Pb\": 1.0}, \"5\": {\"Pb\": 1.0}, \"6\": {\"Pb\": 1.0}, \"7\": {\"Pb\": 1.0}, \"8\": {\"Zr\": 1.0}, \"9\": {\"Zr\": 1.0}, \"10\": {\"Zr\": 1.0}, \"11\": {\"Zr\": 1.0}, \"12\": {\"Zr\": 1.0}, \"13\": {\"Zr\": 1.0}, \"14\": {\"Zr\": 1.0}, \"15\": {\"Zr\": 1.0}, \"16\": {\"O\": 1.0}, \"17\": {\"O\": 1.0}, \"18\": {\"O\": 1.0}, \"19\": {\"O\": 1.0}, \"20\": {\"O\": 1.0}, \"21\": {\"O\": 1.0}, \"22\": {\"O\": 1.0}, \"23\": {\"O\": 1.0}, \"24\": {\"O\": 1.0}, \"25\": {\"O\": 1.0}, \"26\": {\"O\": 1.0}, \"27\": {\"O\": 1.0}, \"28\": {\"O\": 1.0}, \"29\": {\"O\": 1.0}, \"30\": {\"O\": 1.0}, \"31\": {\"O\": 1.0}, \"32\": {\"O\": 1.0}, \"33\": {\"O\": 1.0}, \"34\": {\"O\": 1.0}, \"35\": {\"O\": 1.0}, \"36\": {\"O\": 1.0}, \"37\": {\"O\": 1.0}, \"38\": {\"O\": 1.0}, \"39\": {\"O\": 1.0}}" neb_image=3 energy=-39205.76984120088 polarization_c_per_m2="_JSON [0.022452998488212954, -0.04715252825751459, -0.03499879548962907]" pbc="T T T"
Pb       1.19217857       1.38655987      -0.06294651        0       2.00000000       2.00000000       0.00347353       0.00019845       0.02291684
Pb       4.70995842      10.22992106       0.00568754        0       2.00000000       2.00000000      -0.00063043       0.01940318       0.02009215
Pb       1.78504660       7.28665083       0.00960698        0       2.00000000       2.00000000      -0.00821550       0.00517168       0.01302525
Pb       4.11926195       4.35952158      -0.06496914        0       2.00000000       2.00000000      -0.00151268       0.01954167       0.02120417
Pb       1.19901612       1.46800592       4.03660081        4       2.00000000       2.00000000       0.00857609       0.01757436       0.03364891
Pb       4.62173338      10.20990479       4.07859244        4       2.00000000       2.00000000       0.00380233       0.01278000       0.01214322
Pb       1.75434975       7.33795748       4.07220144        4       2.00000000       2.00000000      -0.01068363       0.01278419       0.02028022
Pb       4.20251419       4.30646549       4.05324609        4       2.00000000       2.00000000      -0.00214117       0.01667135       0.01413352
Zr       4.35406839       1.44416777       2.02397016        8       4.00000000       4.00000000       0.00346003       0.00426150       0.00577027
Zr       1.50513118      10.27534380       6.12693679        8       4.00000000       4.00000000       0.00166707       0.00342903       0.00434191
Zr       1.51078837      10.28569732       2.04630663        8       4.00000000       4.00000000       0.00146191       0.00205225       0.00315976
Zr       4.35314326       1.43484311       6.13179945        8       4.00000000       4.00000000       0.00263068       0.00575493       0.00471672
Zr       4.47252254       7.32130380       6.13919248        8       4.00000000       4.00000000      -0.00350351       0.00605809       0.00306353
Zr       1.43674737       4.39855876       2.03834229        8       4.00000000       4.00000000      -0.00118270       0.00049429       0.00316502
Zr       1.43588465       4.40057863       6.12156742        8       4.00000000       4.00000000      -0.00119982       0.00367115       0.00465725
Zr       4.47727651       7.31652506       2.03573707        8       4.00000000       4.00000000      -0.00439119       0.00382259       0.00338852
O        4.50516300       1.86848668      -0.00176287       16      -2.00000000      -2.00000000       0.01414568       0.00637442      -0.00037609
O        1.27454605       9.95396059       0.00379936       16      -2.00000000      -2.00000000       0.00740475      -0.01269369      -0.00172747
O        4.27009816       7.74010596       0.00292526       16      -2.00000000      -2.00000000      -0.00540294       0.00331016      -0.00076887
O        1.64553667       4.05360406       0.00022908       16      -2.00000000      -2.00000000      -0.01113149      -0.01147077      -0.00156389
O        4.67122853       1.13468254       4.09288301       20      -2.00000000      -2.00000000       0.00776856      -0.02159636      -0.00212412
O        1.13411319      10.65377233       4.09296276       20      -2.00000000      -2.00000000       0.00310770       0.00726785      -0.00260722
O        4.13314179       7.03829914       4.09228080       20      -2.00000000      -2.00000000      -0.01026848      -0.02053285      -0.00206992
O        1.77832561       4.78894104       4.09390905       20      -2.00000000      -2.00000000       0.00074957       0.00586026      -0.00241972
O        3.08989846       3.05930594       2.33026387       24      -2.00000000      -2.00000000       0.01024615       0.00554801      -0.00606961
O        2.75751850       8.70763282       5.89600962       24      -2.00000000      -2.00000000       0.00297333       0.00088416      -0.01772242
O        2.74559330       8.69344497       2.29484812       24      -2.00000000      -2.00000000      -0.01130007      -0.01167269      -0.00099102
O        3.18118811       3.13413159       5.91215214       24      -2.00000000      -2.00000000      -0.01104960      -0.00974459      -0.01583969
O        5.65298546       8.99222136       5.91563784       24      -2.00000000      -2.00000000       0.01141733      -0.01016044      -0.01904656
O        0.10913300       2.88338184       2.33856937       24      -2.00000000      -2.00000000       0.01715207      -0.01780541       0.00210274
O        0.20172778       2.79743604       5.89737015       24      -2.00000000      -2.00000000      -0.00387795       0.00311089      -0.02718159
O        5.64014045       9.01123696       2.27210520       24      -2.00000000      -2.00000000      -0.00323653      -0.00104515      -0.00020427
O        2.95800376       5.89528191       1.68249529       32      -2.00000000      -2.00000000       0.00333295      -0.01055592      -0.02315403
O        2.93035761       5.91796352       6.52146034       32      -2.00000000      -2.00000000      -0.00477597      -0.00230904       0.00254676
O       -0.02996470       0.00999998       6.52714686       32      -2.00000000      -2.00000000       0.00655935      -0.00048819       0.00105022
O        0.02691653       0.06180890       1.68744641       32      -2.00000000      -2.00000000      -0.01105583      -0.01843611      -0.02789522
O        2.91909776       0.00493445       1.90161474       36      -2.00000000      -2.00000000       0.00247449      -0.00047067      -0.02437636
O        2.84952259       0.06673240       6.30798933       36      -2.00000000      -2.00000000       0.01185047      -0.00584132      -0.00125992
O        0.01578507       5.87805533       6.31396674       36      -2.00000000      -2.00000000      -0.01015454      -0.00456901      -0.00360859
O        0.07131054       5.93701893       1.89658370       36      -2.00000000      -2.00000000      -0.00854000      -0.00663225      -0.01440039
40