40
Lattice="5.871972 0.0 0.0 0.0 11.774171 0.0 0.0 0.0 8.178836" Properties=species:S:1:pos:R:3:spacegroup_kinds:I:1:field_charges:R:1:initial_charges:R:1:forces:R:3 spacegroup="P b a m" unit_cell=conventional occupancy="_JSON {\"0\": {\"Pb\": 1.0}, \"1\": {\"Pb\": 1.0}, \"2\": {\"Pb\": 1.0}, \"3\": {\"Pb\": 1.0}, \"4\": {\"Pb\": 1.0}, \"5\": {\"Pb\": 1.0}, \"6\": {\"Pb\": 1.0}, \"7\": {\"Pb\": 1.0}, \"8\": {\"Zr\": 1.0}, \"9\": {\"Zr\": 1.0}, \"10\": {\"Zr\": 1.0}, \"11\": {\"Zr\": 1.0}, \"12\": {\"Zr\": 1.0}, \"13\": {\"Zr\": 1.0}, \"14\": {\"Zr\": 1.0}, \"15\": {\"Zr\": 1.0}, \"16\": {\"O\": 1.0}, \"17\": {\"O\": 1.0}, \"18\": {\"O\": 1.0}, \"19\": {\"O\": 1.0}, \"20\": {\"O\": 1.0}, \"21\": {\"O\": 1.0}, \"22\": {\"O\": 1.0}, \"23\": {\"O\": 1.0}, \"24\": {\"O\": 1.0}, \"25\": {\"O\": 1.0}, \"26\": {\"O\": 1.0}, \"27\": {\"O\": 1.0}, \"28\": {\"O\": 1.0}, \"29\": {\"O\": 1.0}, \"30\": {\"O\": 1.0}, \"31\": {\"O\": 1.0}, \"32\": {\"O\": 1.0}, \"33\": {\"O\": 1.0}, \"34\": {\"O\": 1.0}, \"35\": {\"O\": 1.0}, \"36\": {\"O\": 1.0}, \"37\": {\"O\": 1.0}, \"38\": {\"O\": 1.0}, \"39\": {\"O\": 1.0}}" neb_image=0 energy=-39205.764739708866 polarization_c_per_m2="_JSON [-0.0012611573750599988, 0.0349032942069816, -1.3526432333244794e-15]" pbc="T T T"
Pb       1.17373646       1.45287285      -0.00000000        0       2.00000000       2.00000000       0.01811033      -0.02203254      -0.00000000
Pb       4.69823554      10.32129815      -0.00000000        0       2.00000000       2.00000000       0.02886545      -0.02506414      -0.00000000
Pb       1.76224954       7.33995835      -0.00000000        0       2.00000000       2.00000000       0.02886545      -0.02203254      -0.00000000
Pb       4.10972246       4.43421265      -0.00000000        0       2.00000000       2.00000000       0.01811033      -0.02506414      -0.00000000
Pb       1.22777814       1.51267559       4.08941800        4       2.00000000       2.00000000       0.01833476      -0.01928032       0.00000000
Pb       4.64419386      10.26149541       4.08941800        4       2.00000000       2.00000000       0.02864101      -0.02781637       0.00000000
Pb       1.70820786       7.39976109       4.08941800        4       2.00000000       2.00000000       0.02864101      -0.01928032       0.00000000
Pb       4.16376414       4.37440991       4.08941800        4       2.00000000       2.00000000       0.01833476      -0.02781637       0.00000000
Zr       4.35630128       1.46381254       2.04209901        8       4.00000000       4.00000000       0.04074979      -0.05115421       0.00128299
Zr       1.51567072      10.31035846       6.13673699        8       4.00000000       4.00000000       0.05320176      -0.04303916      -0.00128299
Zr       1.51567072      10.31035846       2.04209901        8       4.00000000       4.00000000       0.05320176      -0.04303916       0.00128299
Zr       4.35630128       1.46381254       6.13673699        8       4.00000000       4.00000000       0.04074979      -0.05115421      -0.00128299
Zr       4.45165672       7.35089804       6.13673699        8       4.00000000       4.00000000       0.05320176      -0.05115421      -0.00128299
Zr       1.42031528       4.42327296       2.04209901        8       4.00000000       4.00000000       0.04074979      -0.04303916       0.00128299
Zr       1.42031528       4.42327296       6.13673699        8       4.00000000       4.00000000       0.04074979      -0.04303916      -0.00128299
Zr       4.45165672       7.35089804       2.04209901        8       4.00000000       4.00000000       0.05320176      -0.05115421       0.00128299
O        4.55672239       1.85661981      -0.00000000       16      -2.00000000      -2.00000000      -0.01967453       0.01834648       0.00000000
O        1.31524961       9.91755119      -0.00000000       16      -2.00000000      -2.00000000      -0.02730124       0.02875020       0.00000000
O        4.25123561       7.74370531      -0.00000000       16      -2.00000000      -2.00000000      -0.02730124       0.01834648       0.00000000
O        1.62073639       4.03046569      -0.00000000       16      -2.00000000      -2.00000000      -0.01967453       0.02875020       0.00000000
O        4.70256932       1.10550087       4.08941800       20      -2.00000000      -2.00000000      -0.01760133       0.03098644      -0.00000000
O        1.16940268      10.66867013       4.08941800       20      -2.00000000      -2.00000000      -0.02937445       0.01611025      -0.00000000
O        4.10538868       6.99258637       4.08941800       20      -2.00000000      -2.00000000      -0.02937445       0.03098644      -0.00000000
O        1.76658332       4.78158463       4.08941800       20      -2.00000000      -2.00000000      -0.01760133       0.01611025      -0.00000000
O        3.12999853       3.08379167       2.30409508       24      -2.00000000      -2.00000000      -0.03345472       0.03894801      -0.00556508
O        2.74197347       8.69037933       5.87474092       24      -2.00000000      -2.00000000      -0.01352106       0.00814867       0.00556508
O        2.74197347       8.69037933       2.30409508       24      -2.00000000      -2.00000000      -0.01352106       0.00814867      -0.00556508
O        3.12999853       3.08379167       5.87474092       24      -2.00000000      -2.00000000      -0.03345472       0.03894801       0.00556508
O        5.67795947       8.97087717       5.87474092       24      -2.00000000      -2.00000000      -0.01352106       0.03894801       0.00556508
O        0.19401253       2.80329383       2.30409508       24      -2.00000000      -2.00000000      -0.03345472       0.00814867      -0.00556508
O        0.19401253       2.80329383       5.87474092       24      -2.00000000      -2.00000000      -0.03345472       0.00814867       0.00556508
O        5.67795947       8.97087717       2.30409508       24      -2.00000000      -2.00000000      -0.01352106       0.03894801      -0.00556508
O        2.93598600       5.88708550       1.65175084       32      -2.00000000      -2.00000000      -0.02348789       0.02354834       0.00096873
O        2.93598600       5.88708550       6.52708516       32      -2.00000000      -2.00000000      -0.02348789       0.02354834      -0.00096873
O        0.00000000       0.00000000       6.52708516       32      -2.00000000      -2.00000000      -0.02348789       0.02354834      -0.00096873
O       -0.00000000       0.00000000       1.65175084       32      -2.00000000      -2.00000000      -0.02348789       0.02354834       0.00096873
O        2.93598600       0.00000000       1.87160782       36      -2.00000000      -2.00000000      -0.02348789       0.02354834       0.00119428
O        2.93598600       0.00000000       6.30722818       36      -2.00000000      -2.00000000      -0.02348789       0.02354834      -0.00119428
O        0.00000000       5.88708550       6.30722818       36      -2.00000000      -2.00000000      -0.02348789       0.02354834      -0.00119428
O        0.00000000       5.88708550       1.87160782       36      -2.00000000      -2.00000000      -0.02348789       0.02354834       0.00119428
40
Lattice="5.869442698248408 0.0 0.0 -0.0034583252877868043 11.765730562963073 0.0 0.0001947365043465224 2.156857937610548e-05 8.171590925343743" Properties=species:S:1:pos:R:3:spacegroup_kinds:I:1:field_charges:R:1:initial_charges:R:1:forces:R:3 spacegroup="P b a m" unit_cell=conventional occupancy="_JSON {\"0\": {\"Pb\": 1.0}, \"1\": {\"Pb\": 1.0}, \"2\": {\"Pb\": 1.0}, \"3\": {\"Pb\": 1.0}, \"4\": {\"Pb\": 1.0}, \"5\": {\"Pb\": 1.0}, \"6\": {\"Pb\": 1.0}, \"7\": {\"Pb\": 1.0}, \"8\": {\"Zr\": 1.0}, \"9\": {\"Zr\": 1.0}, \"10\": {\"Zr\": 1.0}, \"11\": {\"Zr\": 1.0}, \"12\": {\"Zr\": 1.0}, \"13\": {\"Zr\": 1.0}, \"14\": {\"Zr\": 1.0}, \"15\": {\"Zr\": 1.0}, \"16\": {\"O\": 1.0}, \"17\": {\"O\": 1.0}, \"18\": {\"O\": 1.0}, \"19\": {\"O\": 1.0}, \"20\": {\"O\": 1.0}, \"21\": {\"O\": 1.0}, \"22\": {\"O\": 1.0}, \"23\": {\"O\": 1.0}, \"24\": {\"O\": 1.0}, \"25\": {\"O\": 1.0}, \"26\": {\"O\": 1.0}, \"27\": {\"O\": 1.0}, \"28\": {\"O\": 1.0}, \"29\": {\"O\": 1.0}, \"30\": {\"O\": 1.0}, \"31\": {\"O\": 1.0}, \"32\": {\"O\": 1.0}, \"33\": {\"O\": 1.0}, \"34\": {\"O\": 1.0}, \"35\": {\"O\": 1.0}, \"36\": {\"O\": 1.0}, \"37\": {\"O\": 1.0}, \"38\": {\"O\": 1.0}, \"39\": {\"O\": 1.0}}" neb_image=1 energy=-39205.781582931486 polarization_c_per_m2="_JSON [0.019617181093397967, -0.004512488317663133, -0.00021929012033705653]" pbc="T T T"
Pb       1.19073273       1.41629308      -0.00230858        0       2.00000000       2.00000000       0.00512536      -0.01038837       0.00026758
Pb       4.70601609      10.28017464       0.00207806        0       2.00000000       2.00000000       0.00306607      -0.00929086      -0.00012194
Pb       1.77025957       7.30863484       0.00201977        0       2.00000000       2.00000000       0.00284412      -0.00737681      -0.00011978
Pb       4.11759847       4.40142070      -0.00251919        0       2.00000000       2.00000000       0.00274034      -0.00864889       0.00028735
Pb       1.22387543       1.49388793       4.08486838        4       2.00000000       2.00000000      -0.00117786      -0.00501884       0.00013330
Pb       4.63587591      10.23558711       4.08635300        4       2.00000000       2.00000000      -0.00144737      -0.00528317      -0.00001998
Pb       1.72773825       7.36746716       4.08637374        4       2.00000000       2.00000000       0.00611468      -0.00759104      -0.00000964
Pb       4.18442146       4.34399707       4.08490805        4       2.00000000       2.00000000       0.00679105      -0.00746384       0.00013381
Zr       4.35655457       1.45251044       2.03676685        8       4.00000000       4.00000000       0.00039109      -0.00279088      -0.00088131
Zr       1.51578987      10.29170226       6.12810184        8       4.00000000       4.00000000       0.00069717      -0.00299360      -0.00092799
Zr       1.51609121      10.29219218       2.04382749        8       4.00000000       4.00000000       0.00066746      -0.00303980       0.00091216
Zr       4.35631657       1.45199503       6.13428090        8       4.00000000       4.00000000       0.00042079      -0.00274810       0.00097502
Zr       4.45930089       7.33304459       6.13419215        8       4.00000000       4.00000000       0.00317745      -0.00354911       0.00077612
Zr       1.42838642       4.40739463       2.04274725        8       4.00000000       4.00000000       0.00261962      -0.00334137       0.00079513
Zr       1.42810051       4.40790909       6.12832894        8       4.00000000       4.00000000       0.00265349      -0.00338187      -0.00069946
Zr       4.45961330       7.33250477       2.03777025        8       4.00000000       4.00000000       0.00314082      -0.00350429      -0.00078993
O        4.53543577       1.87242308      -0.00012070       16      -2.00000000      -2.00000000      -0.00539397       0.00457737       0.00002088
O        1.29689046       9.93058462       0.00011698       16      -2.00000000      -2.00000000      -0.00426331       0.00544324      -0.00001000
O        4.24993175       7.74378640       0.00012680       16      -2.00000000      -2.00000000       0.00146882       0.00144166      -0.00000867
O        1.62260656       4.03647013      -0.00011332       16      -2.00000000      -2.00000000       0.00137623       0.00240229       0.00002097
O        4.68526758       1.11419196       4.08585571       20      -2.00000000      -2.00000000      -0.00452865       0.00237422      -0.00001286
O        1.15128708      10.66822730       4.08578256       20      -2.00000000      -2.00000000      -0.00376837       0.00192346      -0.00001613
O        4.10797101       7.00282443       4.08578560       20      -2.00000000      -2.00000000       0.00226438       0.00417875      -0.00001469
O        1.76950879       4.78866168       4.08586191       20      -2.00000000      -2.00000000       0.00168717       0.00268463      -0.00001281
O        3.13001151       3.09192605       2.29980873       24      -2.00000000      -2.00000000       0.00152346       0.00361095      -0.00121709
O        2.74708755       8.69539252       5.86900585       24      -2.00000000      -2.00000000       0.00231653       0.00310158       0.00012507
O        2.74423132       8.69264712       2.30136233       24      -2.00000000      -2.00000000       0.00246832       0.00325712      -0.00007522
O        3.13350707       3.09519331       5.87377051       24      -2.00000000      -2.00000000       0.00108763       0.00320850       0.00097426
O        5.66302559       8.97958084       5.88195143       24      -2.00000000      -2.00000000      -0.00301942       0.00441888       0.00345633
O        0.17599015       2.81698623       2.31272213       24      -2.00000000      -2.00000000      -0.00408382       0.00380748       0.00277859
O        0.17944478       2.81374039       5.86056738       24      -2.00000000      -2.00000000      -0.00451932       0.00421080      -0.00300271
O        5.66018144       8.98225191       2.28825456       24      -2.00000000      -2.00000000      -0.00286854       0.00425940      -0.00340433
O        2.92841041       5.89993115       1.65336741       32      -2.00000000      -2.00000000      -0.00155831       0.00506028       0.00089916
O        2.92577235       5.90212193       6.51824972       32      -2.00000000      -2.00000000      -0.00132191       0.00487516      -0.00098659
O       -0.00736201       0.01140946       6.52043592       32      -2.00000000      -2.00000000      -0.00179752       0.00350187      -0.00032331
O       -0.00474287       0.01356136       1.65141680       32      -2.00000000      -2.00000000      -0.00204364       0.00330853       0.00022850
O        2.90581751       0.02198943       1.86933756       36      -2.00000000      -2.00000000      -0.00919324       0.00709854      -0.00064510
O        2.90177882       0.02581653       6.30224870       36      -2.00000000      -2.00000000      -0.00882144       0.00675400       0.00058443
O        0.00399242       5.88159395       6.30161626       36      -2.00000000      -2.00000000       0.00277324       0.00063623      -0.00022227
O        0.00811819       5.88546791       1.87025506       36      -2.00000000      -2.00000000       0.00239143       0.00027590       0.00015311
40
Lattice="5.870614332725551 0.0 0.0 0.001045359188517795 11.76502766827681 0.0 0.0017344712597010168 0.0005548938655922299 8.172670394094533" Properties=species:S:1:pos:R:3:spacegroup_kinds:I:1:field_charges:R:1:initial_charges:R:1:forces:R:3 spacegroup="P b a m" unit_cell=conventional occupancy="_JSON {\"0\": {\"Pb\": 1.0}, \"1\": {\"Pb\": 1.0}, \"2\": {\"Pb\": 1.0}, \"3\": {\"Pb\": 1.0}, \"4\": {\"Pb\": 1.0}, \"5\": {\"Pb\": 1.0}, \"6\": {\"Pb\": 1.0}, \"7\": {\"Pb\": 1.0}, \"8\": {\"Zr\": 1.0}, \"9\": {\"Zr\": 1.0}, \"10\": {\"Zr\": 1.0}, \"11\": {\"Zr\": 1.0}, \"12\": {\"Zr\": 1.0}, \"13\": {\"Zr\": 1.0}, \"14\": {\"Zr\": 1.0}, \"15\": {\"Zr\": 1.0}, \"16\": {\"O\": 1.0}, \"17\": {\"O\": 1.0}, \"18\": {\"O\": 1.0}, \"19\": {\"O\": 1.0}, \"20\": {\"O\": 1.0}, \"21\": {\"O\": 1.0}, \"22\": {\"O\": 1.0}, \"23\": {\"O\": 1.0}, \"24\": {\"O\": 1.0}, \"25\": {\"O\": 1.0}, \"26\": {\"O\": 1.0}, \"27\": {\"O\": 1.0}, \"28\": {\"O\": 1.0}, \"29\": {\"O\": 1.0}, \"30\": {\"O\": 1.0}, \"31\": {\"O\": 1.0}, \"32\": {\"O\": 1.0}, \"33\": {\"O\": 1.0}, \"34\": {\"O\": 1.0}, \"35\": {\"O\": 1.0}, \"36\": {\"O\": 1.0}, \"37\": {\"O\": 1.0}, \"38\": {\"O\": 1.0}, \"39\": {\"O\": 1.0}}" neb_image=2 energy=-39205.78115090142 polarization_c_per_m2="_JSON [0.02167139766116892, -0.02354729126664837, -0.006069108763655271]" pbc="T T T"
Pb       1.19706332       1.39871740      -0.03052841        0       2.00000000       2.00000000       0.00060909       0.00022837       0.00566593
Pb       4.71395347      10.26183073       0.02203040        0       2.00000000       2.00000000      -0.00211427       0.00373338       0.00086086
Pb       1.77477256       7.29297363       0.02157395        0       2.00000000       2.00000000      -0.00007177       0.00266283       0.00001949
Pb       4.12094161       4.38206746      -0.03259135        0       2.00000000       2.00000000       0.00017969       0.00311771       0.00483040
Pb       1.21742291       1.48362275       4.07162557        4       2.00000000       2.00000000       0.00154696       0.00219111       0.00435194
Pb       4.63381893      10.22414826       4.09030060        4       2.00000000       2.00000000       0.00172140       0.00158777       0.00192101
Pb       1.74524954       7.35611730       4.09104896        4       2.00000000       2.00000000      -0.00310448       0.00105880       0.00155609
Pb       4.19665600       4.33194916       4.07248842        4       2.00000000       2.00000000       0.00098991       0.00219236       0.00398787
Zr       4.35734380       1.45076126       2.03182205        8       4.00000000       4.00000000       0.00028201       0.00092695       0.00116588
Zr       1.51682672      10.28478984       6.12804311        8       4.00000000       4.00000000       0.00031084       0.00054505       0.00086142
Zr       1.52111954      10.29054645       2.04741109        8       4.00000000       4.00000000      -0.00036422      -0.00015698      -0.00016490
Zr       4.35445734       1.44498820       6.13235474        8       4.00000000       4.00000000       0.00056136       0.00119110       0.00121409
Zr       4.46637259       7.33065957       6.13845899        8       4.00000000       4.00000000      -0.00026405       0.00035326      -0.00012703
Zr       1.43525085       4.40023445       2.04095752        8       4.00000000       4.00000000       0.00040352       0.00062446       0.00083479
Zr       1.43234010       4.40612558       6.12421321        8       4.00000000       4.00000000       0.00007925       0.00035979       0.00112550
Zr       4.47024347       7.32441107       2.03804409        8       4.00000000       4.00000000      -0.00056398       0.00057370       0.00042923
O        4.52023207       1.87474005      -0.00158500       16      -2.00000000      -2.00000000       0.00503391       0.00121746       0.00023393
O        1.29901432       9.93963563       0.00155504       16      -2.00000000      -2.00000000      -0.00283084      -0.00240431      -0.00036598
O        4.25726517       7.74424684       0.00179845       16      -2.00000000      -2.00000000       0.00277078      -0.00021364      -0.00035690
O        1.63513786       4.04214189      -0.00124961       16      -2.00000000      -2.00000000      -0.00343477      -0.00206844       0.00008213
O        4.68044656       1.11935277       4.08729126       20      -2.00000000      -2.00000000      -0.00104298      -0.00231278      -0.00033294
O        1.14811302      10.66848267       4.08661526       20      -2.00000000      -2.00000000       0.00308093       0.00095688      -0.00045516
O        4.12403693       7.00923487       4.08681215       20      -2.00000000      -2.00000000      -0.00332763      -0.00156839      -0.00049801
O        1.77438671       4.78841926       4.08736603       20      -2.00000000      -2.00000000       0.00183094       0.00115785      -0.00022069
O        3.11507504       3.07826441       2.31104996       24      -2.00000000      -2.00000000       0.00420141       0.00330747      -0.00303146
O        2.77381840       8.71856605       5.86036714       24      -2.00000000      -2.00000000      -0.00083065      -0.00129807       0.00180062
O        2.74397523       8.68849066       2.30178822       24      -2.00000000      -2.00000000      -0.00120880      -0.00089504      -0.00363746
O        3.16176892       3.12118909       5.88918160       24      -2.00000000      -2.00000000      -0.00407463      -0.00368696      -0.00194536
O        5.67833941       8.97232636       5.88576337       24      -2.00000000      -2.00000000       0.00149584      -0.00160618      -0.00546019
O        0.14909346       2.84449387       2.32360358       24      -2.00000000      -2.00000000       0.00552464      -0.00494323       0.00059884
O        0.19548296       2.80127694       5.87239320       24      -2.00000000      -2.00000000      -0.00315785       0.00272285      -0.00568637
O        5.64879024       9.00069920       2.27416587       24      -2.00000000      -2.00000000       0.00082956      -0.00161652       0.00288846
O        2.94522600       5.89677856       1.66126532       32      -2.00000000      -2.00000000      -0.00071178      -0.00035276      -0.00409745
O        2.91445103       5.92265054       6.51390014       32      -2.00000000      -2.00000000       0.00131941      -0.00220549       0.00151534
O       -0.02509779       0.00531798       6.52332442       32      -2.00000000      -2.00000000       0.00078267      -0.00034179      -0.00134939
O        0.00799381       0.03205547       1.65572315       32      -2.00000000      -2.00000000      -0.00360434      -0.00390209      -0.00179758
O        2.91411610       0.01192113       1.87628103       36      -2.00000000      -2.00000000      -0.00305956       0.00318175      -0.00749313
O        2.86425991       0.05898413       6.29895665       36      -2.00000000      -2.00000000       0.00284388      -0.00225376       0.00362117
O       -0.00515036       5.86532470       6.30773709       36      -2.00000000      -2.00000000       0.00042763       0.00093006      -0.00354293
O        0.04301824       5.91083998       1.87136892       36      -2.00000000      -2.00000000      -0.00305903      -0.00299454       0.00099791
40
Lattice="5.872384547576747 0.0 0.0 0.0099968555064158 11.76262928534572 0.0 0.002571443349362224 0.001378638077721945 8.176697665369868" Properties=species:S:1:pos:R:3:spacegroup_kinds:I:1:field_charges:R:1:initial_charges:R:1:forces:R:3 spacegroup="P b a m" unit_cell=conventional occupancy="_JSON {\"0\": {\"Pb\": 1.0}, \"1\": {\"Pb\": 1.0}, \"2\": {\"Pb\": 1.0}, \"3\": {\"Pb\": 1.0}, \"4\": {\"Pb\": 1.0}, \"5\": {\"Pb\": 1.0}, \"6\": {\"Pb\": 1.0}, \"7\": {\"Pb\": 1.0}, \"8\": {\"Zr\": 1.0}, \"9\": {\"Zr\": 1.0}, \"10\": {\"Zr\": 1.0}, \"11\": {\"Zr\": 1.0}, \"12\": {\"Zr\": 1.0}, \"13\": {\"Zr\": 1.0}, \"14\": {\"Zr\": 1.0}, \"15\": {\"Zr\": 1.0}, \"16\": {\"O\": 1.0}, \"17\": {\"O\": 1.0}, \"18\": {\"O\": 1.0}, \"19\": {\"O\": 1.0}, \"20\": {\"O\": 1.0}, \"21\": {\"O\": 1.0}, \"22\": {\"O\": 1.0}, \"23\": {\"O\": 1.0}, \"24\": {\"O\": 1.0}, \"25\": {\"O\": 1.0}, \"26\": {\"O\": 1.0}, \"27\": {\"O\": 1.0}, \"28\": {\"O\": 1.0}, \"29\": {\"O\": 1.0}, \"30\": {\"O\": 1.0}, \"31\": {\"O\": 1.0}, \"32\": {\"O\": 1.0}, \"33\": {\"O\": 1.0}, \"34\": {\"O\": 1.0}, \"35\": {\"O\": 1.0}, \"36\": {\"O\": 1.0}, \"37\": {\"O\": 1.0}, \"38\": {\"O\": 1.0}, \"39\": {\"O\": 1.0}}" neb_image=3 energy=-39205.77400083937 polarization_c_per_m2="_JSON [0.021409845161721716, -0.03835369185417663, -0.018149003996410056]" pbc="T T T"
Pb       1.20219115       1.39035038      -0.06430872        0       2.00000000       2.00000000      -0.00409766       0.00562469       0.01538863
Pb       4.72678396      10.24496427       0.03453018        0       2.00000000       2.00000000      -0.00470128       0.01378061       0.00809655
Pb       1.78295249       7.27928871       0.03574566        0       2.00000000       2.00000000      -0.00129967       0.01113298       0.00249267
Pb       4.12719784       4.36382790      -0.06436715        0       2.00000000       2.00000000      -0.00119195       0.01464297       0.01197588
Pb       1.21177597       1.47234125       4.05303047        4       2.00000000       2.00000000       0.00501164       0.01121128       0.01508282
Pb       4.63574912      10.21308203       4.09051759        4       2.00000000       2.00000000       0.00717309       0.00815511       0.00728799
Pb       1.76405396       7.34643781       4.09281058        4       2.00000000       2.00000000      -0.01107028       0.00716856       0.00596774
Pb       4.20351208       4.32108072       4.05689456        4       2.00000000       2.00000000       0.00045690       0.00958343       0.01054071
Zr       4.35926611       1.44885208       2.02654800        8       4.00000000       4.00000000       0.00096579       0.00341604       0.00375929
Zr       1.52151961      10.27770096       6.12907830        8       4.00000000       4.00000000       0.00114071       0.00270818       0.00345275
Zr       1.53057532      10.28888082       2.05008340        8       4.00000000       4.00000000       0.00006335       0.00123835       0.00018180
Zr       4.35330245       1.43862371       6.13042823        8       4.00000000       4.00000000       0.00129706       0.00346633       0.00303764
Zr       4.47542217       7.32803866       6.14370399        8       4.00000000       4.00000000      -0.00203491       0.00303755      -0.00016518
Zr       1.44107174       4.39458719       2.03849157        8       4.00000000       4.00000000       0.00087098       0.00225550       0.00163453
Zr       1.43679111       4.40480024       6.12204159        8       4.00000000       4.00000000      -0.00024253       0.00249951       0.00299773
Zr       4.48258844       7.31747879       2.03882075        8       4.00000000       4.00000000      -0.00244779       0.00231864       0.00177878
O        4.50069153       1.87130465      -0.00315171       16      -2.00000000      -2.00000000       0.02028021       0.00357216       0.00028286
O        1.30989157       9.94813929       0.00328344       16      -2.00000000      -2.00000000      -0.00523342      -0.01015064      -0.00091358
O        4.26453122       7.74250905       0.00378961       16      -2.00000000      -2.00000000       0.00491220       0.00011741      -0.00088271
O        1.64994440       4.05022340      -0.00196180       16      -2.00000000      -2.00000000      -0.01103077      -0.00926005      -0.00033942
O        4.67919509       1.12908980       4.09069537       20      -2.00000000      -2.00000000       0.00073772      -0.00969951      -0.00116193
O        1.14957203      10.66534144       4.08970007       20      -2.00000000      -2.00000000       0.00786827       0.00235972      -0.00135071
O        4.14449653       7.01688462       4.09018447       20      -2.00000000      -2.00000000      -0.01241339      -0.00888315      -0.00140215
O        1.77531677       4.78439566       4.09072942       20      -2.00000000      -2.00000000       0.00531719       0.00391071      -0.00079303
O        3.09534881       3.05918675       2.32656994       24      -2.00000000      -2.00000000       0.00952541       0.00626302      -0.00652523
O        2.79910349       8.73625271       5.85710592       24      -2.00000000      -2.00000000      -0.00436738      -0.00592881       0.00266606
O        2.74995447       8.68471507       2.30666263       24      -2.00000000      -2.00000000      -0.00719617      -0.00682914      -0.00955175
O        3.18940044       3.14428765       5.90676173       24      -2.00000000      -2.00000000      -0.00904226      -0.00905243      -0.00612754
O        5.69463960       8.96580173       5.89727530       24      -2.00000000      -2.00000000       0.00463958      -0.00584446      -0.01751996
O        0.12032742       2.87348422       2.32930389       24      -2.00000000      -2.00000000       0.01578736      -0.01431744       0.00311005
O        0.21522894       2.78495102       5.89746029       24      -2.00000000      -2.00000000      -0.00386127       0.00371125      -0.01736002
O        5.64644490       9.01372413       2.26325505       24      -2.00000000      -2.00000000       0.00073715      -0.00413479       0.00732549
O        2.96288945       5.89213301       1.67623342       32      -2.00000000      -2.00000000       0.00096823      -0.00541714      -0.01536484
O        2.90789957       5.93863795       6.51006868       32      -2.00000000      -2.00000000       0.00279449      -0.00729398       0.00683039
O       -0.04117561      -0.00075892       6.52952408       32      -2.00000000      -2.00000000       0.00280556      -0.00244511      -0.00294895
O        0.02581965       0.05327071       1.66605519       32      -2.00000000      -2.00000000      -0.00987718      -0.01354705      -0.00915233
O        2.93130411      -0.00510034       1.89574078       36      -2.00000000      -2.00000000      -0.00348721       0.00461339      -0.02205142
O        2.83367451       0.08603402       6.29427881       36      -2.00000000      -2.00000000       0.01026843      -0.00764666       0.00717203
O       -0.01122456       5.85044905       6.31892936       36      -2.00000000      -2.00000000      -0.00245250       0.00045036      -0.00857406
O        0.07598052       5.93409285       1.87461948       36      -2.00000000      -2.00000000      -0.00757372      -0.00678737       0.00112239
40