40
Lattice="5.871972 0.0 0.0 0.0 11.774171 0.0 0.0 0.0 8.178836" Properties=species:S:1:pos:R:3:spacegroup_kinds:I:1:field_charges:R:1:initial_charges:R:1:forces:R:3 spacegroup="P b a m" unit_cell=conventional occupancy="_JSON {\"0\": {\"Pb\": 1.0}, \"1\": {\"Pb\": 1.0}, \"2\": {\"Pb\": 1.0}, \"3\": {\"Pb\": 1.0}, \"4\": {\"Pb\": 1.0}, \"5\": {\"Pb\": 1.0}, \"6\": {\"Pb\": 1.0}, \"7\": {\"Pb\": 1.0}, \"8\": {\"Zr\": 1.0}, \"9\": {\"Zr\": 1.0}, \"10\": {\"Zr\": 1.0}, \"11\": {\"Zr\": 1.0}, \"12\": {\"Zr\": 1.0}, \"13\": {\"Zr\": 1.0}, \"14\": {\"Zr\": 1.0}, \"15\": {\"Zr\": 1.0}, \"16\": {\"O\": 1.0}, \"17\": {\"O\": 1.0}, \"18\": {\"O\": 1.0}, \"19\": {\"O\": 1.0}, \"20\": {\"O\": 1.0}, \"21\": {\"O\": 1.0}, \"22\": {\"O\": 1.0}, \"23\": {\"O\": 1.0}, \"24\": {\"O\": 1.0}, \"25\": {\"O\": 1.0}, \"26\": {\"O\": 1.0}, \"27\": {\"O\": 1.0}, \"28\": {\"O\": 1.0}, \"29\": {\"O\": 1.0}, \"30\": {\"O\": 1.0}, \"31\": {\"O\": 1.0}, \"32\": {\"O\": 1.0}, \"33\": {\"O\": 1.0}, \"34\": {\"O\": 1.0}, \"35\": {\"O\": 1.0}, \"36\": {\"O\": 1.0}, \"37\": {\"O\": 1.0}, \"38\": {\"O\": 1.0}, \"39\": {\"O\": 1.0}}" neb_image=0 energy=-39205.764739708866 polarization_c_per_m2="_JSON [-0.0012611573750599988, 0.0349032942069816, -1.3526432333244794e-15]" pbc="T T T"
Pb       1.17373646       1.45287285      -0.00000000        0       2.00000000       2.00000000       0.01811033      -0.02203254      -0.00000000
Pb       4.69823554      10.32129815      -0.00000000        0       2.00000000       2.00000000       0.02886545      -0.02506414      -0.00000000
Pb       1.76224954       7.33995835      -0.00000000        0       2.00000000       2.00000000       0.02886545      -0.02203254      -0.00000000
Pb       4.10972246       4.43421265      -0.00000000        0       2.00000000       2.00000000       0.01811033      -0.02506414      -0.00000000
Pb       1.22777814       1.51267559       4.08941800        4       2.00000000       2.00000000       0.01833476      -0.01928032       0.00000000
Pb       4.64419386      10.26149541       4.08941800        4       2.00000000       2.00000000       0.02864101      -0.02781637       0.00000000
Pb       1.70820786       7.39976109       4.08941800        4       2.00000000       2.00000000       0.02864101      -0.01928032       0.00000000
Pb       4.16376414       4.37440991       4.08941800        4       2.00000000       2.00000000       0.01833476      -0.02781637       0.00000000
Zr       4.35630128       1.46381254       2.04209901        8       4.00000000       4.00000000       0.04074979      -0.05115421       0.00128299
Zr       1.51567072      10.31035846       6.13673699        8       4.00000000       4.00000000       0.05320176      -0.04303916      -0.00128299
Zr       1.51567072      10.31035846       2.04209901        8       4.00000000       4.00000000       0.05320176      -0.04303916       0.00128299
Zr       4.35630128       1.46381254       6.13673699        8       4.00000000       4.00000000       0.04074979      -0.05115421      -0.00128299
Zr       4.45165672       7.35089804       6.13673699        8       4.00000000       4.00000000       0.05320176      -0.05115421      -0.00128299
Zr       1.42031528       4.42327296       2.04209901        8       4.00000000       4.00000000       0.04074979      -0.04303916       0.00128299
Zr       1.42031528       4.42327296       6.13673699        8       4.00000000       4.00000000       0.04074979      -0.04303916      -0.00128299
Zr       4.45165672       7.35089804       2.04209901        8       4.00000000       4.00000000       0.05320176      -0.05115421       0.00128299
O        4.55672239       1.85661981      -0.00000000       16      -2.00000000      -2.00000000      -0.01967453       0.01834648       0.00000000
O        1.31524961       9.91755119      -0.00000000       16      -2.00000000      -2.00000000      -0.02730124       0.02875020       0.00000000
O        4.25123561       7.74370531      -0.00000000       16      -2.00000000      -2.00000000      -0.02730124       0.01834648       0.00000000
O        1.62073639       4.03046569      -0.00000000       16      -2.00000000      -2.00000000      -0.01967453       0.02875020       0.00000000
O        4.70256932       1.10550087       4.08941800       20      -2.00000000      -2.00000000      -0.01760133       0.03098644      -0.00000000
O        1.16940268      10.66867013       4.08941800       20      -2.00000000      -2.00000000      -0.02937445       0.01611025      -0.00000000
O        4.10538868       6.99258637       4.08941800       20      -2.00000000      -2.00000000      -0.02937445       0.03098644      -0.00000000
O        1.76658332       4.78158463       4.08941800       20      -2.00000000      -2.00000000      -0.01760133       0.01611025      -0.00000000
O        3.12999853       3.08379167       2.30409508       24      -2.00000000      -2.00000000      -0.03345472       0.03894801      -0.00556508
O        2.74197347       8.69037933       5.87474092       24      -2.00000000      -2.00000000      -0.01352106       0.00814867       0.00556508
O        2.74197347       8.69037933       2.30409508       24      -2.00000000      -2.00000000      -0.01352106       0.00814867      -0.00556508
O        3.12999853       3.08379167       5.87474092       24      -2.00000000      -2.00000000      -0.03345472       0.03894801       0.00556508
O        5.67795947       8.97087717       5.87474092       24      -2.00000000      -2.00000000      -0.01352106       0.03894801       0.00556508
O        0.19401253       2.80329383       2.30409508       24      -2.00000000      -2.00000000      -0.03345472       0.00814867      -0.00556508
O        0.19401253       2.80329383       5.87474092       24      -2.00000000      -2.00000000      -0.03345472       0.00814867       0.00556508
O        5.67795947       8.97087717       2.30409508       24      -2.00000000      -2.00000000      -0.01352106       0.03894801      -0.00556508
O        2.93598600       5.88708550       1.65175084       32      -2.00000000      -2.00000000      -0.02348789       0.02354834       0.00096873
O        2.93598600       5.88708550       6.52708516       32      -2.00000000      -2.00000000      -0.02348789       0.02354834      -0.00096873
O        0.00000000       0.00000000       6.52708516       32      -2.00000000      -2.00000000      -0.02348789       0.02354834      -0.00096873
O       -0.00000000       0.00000000       1.65175084       32      -2.00000000      -2.00000000      -0.02348789       0.02354834       0.00096873
O        2.93598600       0.00000000       1.87160782       36      -2.00000000      -2.00000000      -0.02348789       0.02354834       0.00119428
O        2.93598600       0.00000000       6.30722818       36      -2.00000000      -2.00000000      -0.02348789       0.02354834      -0.00119428
O        0.00000000       5.88708550       6.30722818       36      -2.00000000      -2.00000000      -0.02348789       0.02354834      -0.00119428
O        0.00000000       5.88708550       1.87160782       36      -2.00000000      -2.00000000      -0.02348789       0.02354834       0.00119428
40
Lattice="5.86949287688792 0.0 0.0 -0.0047554877048335146 11.765901870888747 0.0 -3.629073999737718e-05 -5.300902549128762e-07 8.171546126632489" Properties=species:S:1:pos:R:3:spacegroup_kinds:I:1:field_charges:R:1:initial_charges:R:1:forces:R:3 spacegroup="P b a m" unit_cell=conventional occupancy="_JSON {\"0\": {\"Pb\": 1.0}, \"1\": {\"Pb\": 1.0}, \"2\": {\"Pb\": 1.0}, \"3\": {\"Pb\": 1.0}, \"4\": {\"Pb\": 1.0}, \"5\": {\"Pb\": 1.0}, \"6\": {\"Pb\": 1.0}, \"7\": {\"Pb\": 1.0}, \"8\": {\"Zr\": 1.0}, \"9\": {\"Zr\": 1.0}, \"10\": {\"Zr\": 1.0}, \"11\": {\"Zr\": 1.0}, \"12\": {\"Zr\": 1.0}, \"13\": {\"Zr\": 1.0}, \"14\": {\"Zr\": 1.0}, \"15\": {\"Zr\": 1.0}, \"16\": {\"O\": 1.0}, \"17\": {\"O\": 1.0}, \"18\": {\"O\": 1.0}, \"19\": {\"O\": 1.0}, \"20\": {\"O\": 1.0}, \"21\": {\"O\": 1.0}, \"22\": {\"O\": 1.0}, \"23\": {\"O\": 1.0}, \"24\": {\"O\": 1.0}, \"25\": {\"O\": 1.0}, \"26\": {\"O\": 1.0}, \"27\": {\"O\": 1.0}, \"28\": {\"O\": 1.0}, \"29\": {\"O\": 1.0}, \"30\": {\"O\": 1.0}, \"31\": {\"O\": 1.0}, \"32\": {\"O\": 1.0}, \"33\": {\"O\": 1.0}, \"34\": {\"O\": 1.0}, \"35\": {\"O\": 1.0}, \"36\": {\"O\": 1.0}, \"37\": {\"O\": 1.0}, \"38\": {\"O\": 1.0}, \"39\": {\"O\": 1.0}}" neb_image=1 energy=-39205.782000973544 polarization_c_per_m2="_JSON [0.020194094814530127, -0.00706188427831355, 3.93133187337411e-05]" pbc="T T T"
Pb       1.19172635       1.41339884       0.00036139        0       2.00000000       2.00000000       0.00425154      -0.00857045      -0.00004409
Pb       4.70481727      10.27856371      -0.00031915        0       2.00000000       2.00000000       0.00287339      -0.00794680       0.00001598
Pb       1.76976275       7.30680544      -0.00030830        0       2.00000000       2.00000000       0.00254355      -0.00625331       0.00001717
Pb       4.11707483       4.39882287       0.00039553        0       2.00000000       2.00000000       0.00245538      -0.00720542      -0.00004837
Pb       1.22259423       1.49266735       4.08592556        4       2.00000000       2.00000000      -0.00088423      -0.00424274      -0.00003159
Pb       4.63385328      10.23406969       4.08568995        4       2.00000000       2.00000000      -0.00091613      -0.00451710      -0.00000195
Pb       1.72847800       7.36610722       4.08568671        4       2.00000000       2.00000000       0.00536114      -0.00637572      -0.00000321
Pb       4.18543772       4.34272182       4.08591382        4       2.00000000       2.00000000       0.00562000      -0.00642078      -0.00002453
Zr       4.35579796       1.45176969       2.03687186        8       4.00000000       4.00000000       0.00045354      -0.00246822      -0.00078033
Zr       1.51436418      10.29149576       6.12765542        8       4.00000000       4.00000000       0.00080099      -0.00262418      -0.00080197
Zr       1.51431995      10.29141846       2.04384188        8       4.00000000       4.00000000       0.00080742      -0.00261631       0.00080075
Zr       4.35583066       1.45185212       6.13476083        8       4.00000000       4.00000000       0.00045081      -0.00247551       0.00076438
Zr       4.45928178       7.33207307       6.13418542        8       4.00000000       4.00000000       0.00280321      -0.00305483       0.00065746
Zr       1.42808802       4.40713783       2.04324468        8       4.00000000       4.00000000       0.00229249      -0.00293644       0.00064730
Zr       1.42812888       4.40706227       6.12838118        8       4.00000000       4.00000000       0.00228905      -0.00293287      -0.00065987
Zr       4.45923700       7.33215413       2.03730520        8       4.00000000       4.00000000       0.00280957      -0.00306041      -0.00065634
O        4.53367134       1.87311437       0.00001849       16      -2.00000000      -2.00000000      -0.00456637       0.00398332      -0.00000178
O        1.29461342       9.93161674      -0.00001766       16      -2.00000000      -2.00000000      -0.00361171       0.00471841       0.00000244
O        4.25040965       7.74400730      -0.00001962       16      -2.00000000      -2.00000000       0.00089658       0.00129651       0.00000272
O        1.62326811       4.03700706       0.00001651       16      -2.00000000      -2.00000000       0.00105976       0.00211092      -0.00000048
O        4.68365100       1.11450143       4.08576355       20      -2.00000000      -2.00000000      -0.00367613       0.00221776       0.00000163
O        1.14944609      10.66891259       4.08577501       20      -2.00000000      -2.00000000      -0.00339395       0.00173502       0.00000156
O        4.10824805       7.00355221       4.08577420       20      -2.00000000      -2.00000000       0.00163345       0.00358068       0.00000143
O        1.76970019       4.78875973       4.08576123       20      -2.00000000      -2.00000000       0.00127562       0.00237814       0.00000241
O        3.13247959       3.09500400       2.29801654       24      -2.00000000      -2.00000000       0.00099924       0.00288723      -0.00082344
O        2.74576449       8.69547124       5.86942628       24      -2.00000000      -2.00000000       0.00192195       0.00252687      -0.00000829
O        2.74620267       8.69588902       2.30230089       24      -2.00000000      -2.00000000       0.00190119       0.00250279       0.00000873
O        3.13193028       3.09449742       5.87321297       24      -2.00000000      -2.00000000       0.00106773       0.00294645       0.00086986
O        5.66023995       8.98166426       5.88284497       24      -2.00000000      -2.00000000      -0.00257489       0.00379271       0.00296538
O        0.17681446       2.81588895       2.31230866       24      -2.00000000      -2.00000000      -0.00368733       0.00336008       0.00232356
O        0.17627132       2.81639900       5.85897074       24      -2.00000000      -2.00000000      -0.00361903       0.00329452      -0.00228727
O        5.66067751       8.98125329       2.28891344       24      -2.00000000      -2.00000000      -0.00259543       0.00381615      -0.00296943
O        2.92594684       5.90255796       1.65378039       32      -2.00000000      -2.00000000      -0.00135002       0.00431619       0.00078356
O        2.92634792       5.90222396       6.51776032       32      -2.00000000      -2.00000000      -0.00138357       0.00434265      -0.00077366
O       -0.00706725       0.01293330       6.52019066       32      -2.00000000      -2.00000000      -0.00162895       0.00285556      -0.00023588
O       -0.00747235       0.01259455       1.65130908       32      -2.00000000      -2.00000000      -0.00158397       0.00289342       0.00025550
O        2.90049805       0.02637121       1.86862391       36      -2.00000000      -2.00000000      -0.00753237       0.00578219      -0.00026706
O        2.90112012       0.02578172       6.30292161       36      -2.00000000      -2.00000000      -0.00759234       0.00583584       0.00027867
O        0.00688473       5.88435136       6.30121824       36      -2.00000000      -2.00000000       0.00198689       0.00023709      -0.00007470
O        0.00625329       5.88375226       1.87027565       36      -2.00000000      -2.00000000       0.00204195       0.00029061       0.00009376
40
Lattice="5.870616774001501 0.0 0.0 -0.008282932116535139 11.765312038381492 0.0 0.0029589115028999264 4.854542895757974e-05 8.172580997045948" Properties=species:S:1:pos:R:3:spacegroup_kinds:I:1:field_charges:R:1:initial_charges:R:1:forces:R:3 spacegroup="P b a m" unit_cell=conventional occupancy="_JSON {\"0\": {\"Pb\": 1.0}, \"1\": {\"Pb\": 1.0}, \"2\": {\"Pb\": 1.0}, \"3\": {\"Pb\": 1.0}, \"4\": {\"Pb\": 1.0}, \"5\": {\"Pb\": 1.0}, \"6\": {\"Pb\": 1.0}, \"7\": {\"Pb\": 1.0}, \"8\": {\"Zr\": 1.0}, \"9\": {\"Zr\": 1.0}, \"10\": {\"Zr\": 1.0}, \"11\": {\"Zr\": 1.0}, \"12\": {\"Zr\": 1.0}, \"13\": {\"Zr\": 1.0}, \"14\": {\"Zr\": 1.0}, \"15\": {\"Zr\": 1.0}, \"16\": {\"O\": 1.0}, \"17\": {\"O\": 1.0}, \"18\": {\"O\": 1.0}, \"19\": {\"O\": 1.0}, \"20\": {\"O\": 1.0}, \"21\": {\"O\": 1.0}, \"22\": {\"O\": 1.0}, \"23\": {\"O\": 1.0}, \"24\": {\"O\": 1.0}, \"25\": {\"O\": 1.0}, \"26\": {\"O\": 1.0}, \"27\": {\"O\": 1.0}, \"28\": {\"O\": 1.0}, \"29\": {\"O\": 1.0}, \"30\": {\"O\": 1.0}, \"31\": {\"O\": 1.0}, \"32\": {\"O\": 1.0}, \"33\": {\"O\": 1.0}, \"34\": {\"O\": 1.0}, \"35\": {\"O\": 1.0}, \"36\": {\"O\": 1.0}, \"37\": {\"O\": 1.0}, \"38\": {\"O\": 1.0}, \"39\": {\"O\": 1.0}}" neb_image=2 energy=-39205.78167320144 polarization_c_per_m2="_JSON [0.023075504364149648, -0.025009464720164867, -0.0063213291396505755]" pbc="T T T"
Pb       1.19757560       1.39438412      -0.03024928        0       2.00000000       2.00000000       0.00064678       0.00099616       0.00587884
Pb       4.70376199      10.26001627       0.02165647        0       2.00000000       2.00000000      -0.00059182       0.00389443       0.00080138
Pb       1.77222617       7.29597698       0.02127494        0       2.00000000       2.00000000      -0.00141952       0.00172162       0.00004243
Pb       4.11785785       4.38380800      -0.03310156        0       2.00000000       2.00000000      -0.00006315       0.00333798       0.00542254
Pb       1.21426331       1.48424964       4.07070984        4       2.00000000       2.00000000       0.00234302       0.00256292       0.00560798
Pb       4.62616687      10.22509238       4.09057047        4       2.00000000       2.00000000       0.00123382       0.00189900       0.00158155
Pb       1.73849351       7.35355718       4.09043607        4       2.00000000       2.00000000      -0.00219942       0.00192585       0.00205813
Pb       4.19472047       4.32854795       4.07291261        4       2.00000000       2.00000000      -0.00044438       0.00315166       0.00345104
Zr       4.35567019       1.45037224       2.03121698        8       4.00000000       4.00000000       0.00072203       0.00077105       0.00139402
Zr       1.50878567      10.28333430       6.12791613        8       4.00000000       4.00000000       0.00080960       0.00104395       0.00069888
Zr       1.51227790      10.28948005       2.04716132        8       4.00000000       4.00000000       0.00016797       0.00021537       0.00017406
Zr       4.35364607       1.44407775       6.13295933        8       4.00000000       4.00000000       0.00094112       0.00144607       0.00095937
Zr       4.46287278       7.32978620       6.13771530        8       4.00000000       4.00000000      -0.00069821       0.00089285       0.00020262
Zr       1.43327516       4.40054567       2.04109618        8       4.00000000       4.00000000      -0.00042600       0.00043154       0.00068165
Zr       1.43064594       4.40563820       6.12420056        8       4.00000000       4.00000000      -0.00035300       0.00057085       0.00110586
Zr       4.46637769       7.32394340       2.03823931        8       4.00000000       4.00000000      -0.00120878       0.00101257       0.00039758
O        4.51918205       1.87507863      -0.00143212       16      -2.00000000      -2.00000000       0.00334764       0.00100228       0.00013952
O        1.28492353       9.94008829       0.00153807       16      -2.00000000      -2.00000000       0.00117683      -0.00228982      -0.00036737
O        4.25797383       7.74394316       0.00170636       16      -2.00000000      -2.00000000      -0.00134493       0.00011332      -0.00026152
O        1.63111835       4.04147553      -0.00103189       16      -2.00000000      -2.00000000      -0.00221836      -0.00178005      -0.00008799
O        4.67672107       1.11650318       4.08719709       20      -2.00000000      -2.00000000       0.00139422      -0.00284540      -0.00033649
O        1.14196482      10.66615505       4.08651651       20      -2.00000000      -2.00000000       0.00124258       0.00120828      -0.00041632
O        4.11711765       7.01450075       4.08652614       20      -2.00000000      -2.00000000      -0.00207365      -0.00304973      -0.00032604
O        1.77349688       4.79240341       4.08749631       20      -2.00000000      -2.00000000      -0.00011149       0.00034769      -0.00041179
O        3.10944056       3.07507437       2.31420260       24      -2.00000000      -2.00000000       0.00398708       0.00291097      -0.00259166
O        2.76348573       8.71378146       5.86907071       24      -2.00000000      -2.00000000      -0.00022761      -0.00067280      -0.00200468
O        2.73369801       8.68481498       2.29330380       24      -2.00000000      -2.00000000      -0.00073266      -0.00064497       0.00002917
O        3.15606102       3.11683063       5.88656343       24      -2.00000000      -2.00000000      -0.00362541      -0.00319691      -0.00300272
O        5.66823833       8.97604048       5.88491837       24      -2.00000000      -2.00000000       0.00163037      -0.00146986      -0.00301797
O        0.14290566       2.84924553       2.32854575       24      -2.00000000      -2.00000000       0.00565444      -0.00564861      -0.00093579
O        0.18914105       2.80587334       5.86722001       24      -2.00000000      -2.00000000      -0.00228237       0.00194196      -0.00439963
O        5.63849831       9.00452142       2.27469074       24      -2.00000000      -2.00000000       0.00109596      -0.00188568       0.00102848
O        2.94756711       5.89231969       1.65896970       32      -2.00000000      -2.00000000      -0.00206567       0.00011324      -0.00284917
O        2.91798464       5.91706774       6.51613338       32      -2.00000000      -2.00000000      -0.00043385      -0.00100504       0.00018630
O       -0.02263731       0.00734405       6.52145447       32      -2.00000000      -2.00000000       0.00218466       0.00033356      -0.00007669
O        0.00972289       0.03490713       1.65807116       32      -2.00000000      -2.00000000      -0.00289810      -0.00421231      -0.00386646
O        2.91365270       0.01104210       1.87185140       36      -2.00000000      -2.00000000      -0.00126052       0.00182080      -0.00431165
O        2.86562055       0.05628688       6.30334282       36      -2.00000000      -2.00000000       0.00429661      -0.00275814       0.00043607
O       -0.00130358       5.87126407       6.30425443       36      -2.00000000      -2.00000000      -0.00127811      -0.00008686      -0.00106052
O        0.04616073       5.91702081       1.87547174       36      -2.00000000      -2.00000000      -0.00491774      -0.00411981      -0.00195303
40
Lattice="5.874851715811507 0.0 0.0 -0.0076269306391929465 11.763198938618139 0.0 0.005681166870031242 0.0004569165979883122 8.178166010547345" Properties=species:S:1:pos:R:3:spacegroup_kinds:I:1:field_charges:R:1:initial_charges:R:1:forces:R:3 spacegroup="P b a m" unit_cell=conventional occupancy="_JSON {\"0\": {\"Pb\": 1.0}, \"1\": {\"Pb\": 1.0}, \"2\": {\"Pb\": 1.0}, \"3\": {\"Pb\": 1.0}, \"4\": {\"Pb\": 1.0}, \"5\": {\"Pb\": 1.0}, \"6\": {\"Pb\": 1.0}, \"7\": {\"Pb\": 1.0}, \"8\": {\"Zr\": 1.0}, \"9\": {\"Zr\": 1.0}, \"10\": {\"Zr\": 1.0}, \"11\": {\"Zr\": 1.0}, \"12\": {\"Zr\": 1.0}, \"13\": {\"Zr\": 1.0}, \"14\": {\"Zr\": 1.0}, \"15\": {\"Zr\": 1.0}, \"16\": {\"O\": 1.0}, \"17\": {\"O\": 1.0}, \"18\": {\"O\": 1.0}, \"19\": {\"O\": 1.0}, \"20\": {\"O\": 1.0}, \"21\": {\"O\": 1.0}, \"22\": {\"O\": 1.0}, \"23\": {\"O\": 1.0}, \"24\": {\"O\": 1.0}, \"25\": {\"O\": 1.0}, \"26\": {\"O\": 1.0}, \"27\": {\"O\": 1.0}, \"28\": {\"O\": 1.0}, \"29\": {\"O\": 1.0}, \"30\": {\"O\": 1.0}, \"31\": {\"O\": 1.0}, \"32\": {\"O\": 1.0}, \"33\": {\"O\": 1.0}, \"34\": {\"O\": 1.0}, \"35\": {\"O\": 1.0}, \"36\": {\"O\": 1.0}, \"37\": {\"O\": 1.0}, \"38\": {\"O\": 1.0}, \"39\": {\"O\": 1.0}}" neb_image=3 energy=-39205.771471291104 polarization_c_per_m2="_JSON [0.02249105896824139, -0.04578501979514481, -0.030411113481149003]" pbc="T T T"
Pb       1.19411192       1.38769289      -0.06503115        0       2.00000000       2.00000000       0.00146281       0.00074084       0.02264760
Pb       4.71155177      10.23379824       0.01399956        0       2.00000000       2.00000000      -0.00152230       0.01825886       0.01706373
Pb       1.78317233       7.28358877       0.01816900        0       2.00000000       2.00000000      -0.00643385       0.00810537       0.00880535
Pb       4.12101929       4.36110018      -0.06498273        0       2.00000000       2.00000000      -0.00178485       0.01819894       0.01851386
Pb       1.20175970       1.46790042       4.03888154        4       2.00000000       2.00000000       0.00783654       0.01739357       0.03189498
Pb       4.62377832      10.21085453       4.08228131        4       2.00000000       2.00000000       0.00435672       0.01145300       0.01065017
Pb       1.75583661       7.34029854       4.07880058        4       2.00000000       2.00000000      -0.01074307       0.01063121       0.01501554
Pb       4.20253385       4.30837588       4.05453840        4       2.00000000       2.00000000      -0.00182193       0.01653918       0.01218654
Zr       4.35469154       1.44511939       2.02410602        8       4.00000000       4.00000000       0.00313568       0.00408262       0.00569774
Zr       1.50751399      10.27540828       6.12738575        8       4.00000000       4.00000000       0.00160695       0.00340600       0.00402912
Zr       1.51335161      10.28616393       2.04718640        8       4.00000000       4.00000000       0.00127115       0.00230472       0.00261452
Zr       4.35308148       1.43521146       6.13131485        8       4.00000000       4.00000000       0.00246577       0.00532225       0.00426372
Zr       4.47327114       7.32264175       6.14032021        8       4.00000000       4.00000000      -0.00338536       0.00554628       0.00210889
Zr       1.43773689       4.39736784       2.03844081        8       4.00000000       4.00000000      -0.00100356       0.00080822       0.00254932
Zr       1.43648685       4.40117942       6.12154460        8       4.00000000       4.00000000      -0.00111782       0.00356966       0.00418428
Zr       4.47822541       7.31646032       2.03668378        8       4.00000000       4.00000000      -0.00428795       0.00371814       0.00277132
O        4.50178469       1.86861559      -0.00215708       16      -2.00000000      -2.00000000       0.01649810       0.00620578      -0.00020788
O        1.27862293       9.95272023       0.00371757       16      -2.00000000      -2.00000000       0.00588327      -0.01211634      -0.00155019
O        4.27003915       7.74167853       0.00317140       16      -2.00000000      -2.00000000      -0.00455596       0.00157162      -0.00075911
O        1.64666245       4.05212902      -0.00031341       16      -2.00000000      -2.00000000      -0.01110973      -0.01045371      -0.00130199
O        4.67259413       1.13483057       4.09212886       20      -2.00000000      -2.00000000       0.00696797      -0.02076687      -0.00185445
O        1.13683589      10.65727884       4.09200326       20      -2.00000000      -2.00000000       0.00354542       0.00605574      -0.00234844
O        4.13485712       7.03242992       4.09143056       20      -2.00000000      -2.00000000      -0.01033785      -0.01660039      -0.00179290
O        1.77766578       4.78895712       4.09292787       20      -2.00000000      -2.00000000       0.00113238       0.00452612      -0.00200328
O        3.09010207       3.05890873       2.33040140       24      -2.00000000      -2.00000000       0.01012052       0.00542435      -0.00626487
O        2.76775370       8.71532685       5.88640854       24      -2.00000000      -2.00000000       0.00104568      -0.00087160      -0.01222049
O        2.74430890       8.69030594       2.29600581       24      -2.00000000      -2.00000000      -0.01021454      -0.01020978      -0.00258506
O        3.18281053       3.13605322       5.90962801       24      -2.00000000      -2.00000000      -0.00975125      -0.00901936      -0.01337081
O        5.66287595       8.98536952       5.90852979       24      -2.00000000      -2.00000000       0.00994351      -0.00929975      -0.01742085
O        0.11059798       2.88215576       2.33521165       24      -2.00000000      -2.00000000       0.01689909      -0.01739433       0.00318386
O        0.20502090       2.79427196       5.89861224       24      -2.00000000      -2.00000000      -0.00324050       0.00274994      -0.02621522
O        5.63940282       9.01260068       2.27125737       24      -2.00000000      -2.00000000      -0.00223612      -0.00168314       0.00057252
O        2.96103201       5.89294706       1.67852220       32      -2.00000000      -2.00000000       0.00179332      -0.00893407      -0.01866134
O        2.92635122       5.92199479       6.51957799       32      -2.00000000      -2.00000000      -0.00390055      -0.00298195       0.00238865
O       -0.03355337       0.00617821       6.52658286       32      -2.00000000      -2.00000000       0.00629822      -0.00068351       0.00095747
O        0.02594770       0.05958315       1.68336755       32      -2.00000000      -2.00000000      -0.01040930      -0.01729715      -0.02529035
O        2.92071907       0.00309147       1.90010807       36      -2.00000000      -2.00000000       0.00234517      -0.00007932      -0.02417499
O        2.84410635       0.07260958       6.30539200       36      -2.00000000      -2.00000000       0.01216810      -0.00645822      -0.00039242
O        0.01118774       5.87267162       6.31490194       36      -2.00000000      -2.00000000      -0.00954493      -0.00436677      -0.00437118
O        0.07509640       5.93902092       1.88960046       36      -2.00000000      -2.00000000      -0.00937497      -0.00739613      -0.00931334
40