40
Lattice="5.871972 0.0 0.0 0.0 11.774171 0.0 0.0 0.0 8.178836" Properties=species:S:1:pos:R:3:spacegroup_kinds:I:1:field_charges:R:1:initial_charges:R:1:forces:R:3 spacegroup="P b a m" unit_cell=conventional occupancy="_JSON {\"0\": {\"Pb\": 1.0}, \"1\": {\"Pb\": 1.0}, \"2\": {\"Pb\": 1.0}, \"3\": {\"Pb\": 1.0}, \"4\": {\"Pb\": 1.0}, \"5\": {\"Pb\": 1.0}, \"6\": {\"Pb\": 1.0}, \"7\": {\"Pb\": 1.0}, \"8\": {\"Zr\": 1.0}, \"9\": {\"Zr\": 1.0}, \"10\": {\"Zr\": 1.0}, \"11\": {\"Zr\": 1.0}, \"12\": {\"Zr\": 1.0}, \"13\": {\"Zr\": 1.0}, \"14\": {\"Zr\": 1.0}, \"15\": {\"Zr\": 1.0}, \"16\": {\"O\": 1.0}, \"17\": {\"O\": 1.0}, \"18\": {\"O\": 1.0}, \"19\": {\"O\": 1.0}, \"20\": {\"O\": 1.0}, \"21\": {\"O\": 1.0}, \"22\": {\"O\": 1.0}, \"23\": {\"O\": 1.0}, \"24\": {\"O\": 1.0}, \"25\": {\"O\": 1.0}, \"26\": {\"O\": 1.0}, \"27\": {\"O\": 1.0}, \"28\": {\"O\": 1.0}, \"29\": {\"O\": 1.0}, \"30\": {\"O\": 1.0}, \"31\": {\"O\": 1.0}, \"32\": {\"O\": 1.0}, \"33\": {\"O\": 1.0}, \"34\": {\"O\": 1.0}, \"35\": {\"O\": 1.0}, \"36\": {\"O\": 1.0}, \"37\": {\"O\": 1.0}, \"38\": {\"O\": 1.0}, \"39\": {\"O\": 1.0}}" neb_image=0 energy=-39205.764739708866 polarization_c_per_m2="_JSON [-0.0012611573750599988, 0.0349032942069816, -1.3526432333244794e-15]" pbc="T T T"
Pb       1.17373646       1.45287285      -0.00000000        0       2.00000000       2.00000000       0.01811033      -0.02203254      -0.00000000
Pb       4.69823554      10.32129815      -0.00000000        0       2.00000000       2.00000000       0.02886545      -0.02506414      -0.00000000
Pb       1.76224954       7.33995835      -0.00000000        0       2.00000000       2.00000000       0.02886545      -0.02203254      -0.00000000
Pb       4.10972246       4.43421265      -0.00000000        0       2.00000000       2.00000000       0.01811033      -0.02506414      -0.00000000
Pb       1.22777814       1.51267559       4.08941800        4       2.00000000       2.00000000       0.01833476      -0.01928032       0.00000000
Pb       4.64419386      10.26149541       4.08941800        4       2.00000000       2.00000000       0.02864101      -0.02781637       0.00000000
Pb       1.70820786       7.39976109       4.08941800        4       2.00000000       2.00000000       0.02864101      -0.01928032       0.00000000
Pb       4.16376414       4.37440991       4.08941800        4       2.00000000       2.00000000       0.01833476      -0.02781637       0.00000000
Zr       4.35630128       1.46381254       2.04209901        8       4.00000000       4.00000000       0.04074979      -0.05115421       0.00128299
Zr       1.51567072      10.31035846       6.13673699        8       4.00000000       4.00000000       0.05320176      -0.04303916      -0.00128299
Zr       1.51567072      10.31035846       2.04209901        8       4.00000000       4.00000000       0.05320176      -0.04303916       0.00128299
Zr       4.35630128       1.46381254       6.13673699        8       4.00000000       4.00000000       0.04074979      -0.05115421      -0.00128299
Zr       4.45165672       7.35089804       6.13673699        8       4.00000000       4.00000000       0.05320176      -0.05115421      -0.00128299
Zr       1.42031528       4.42327296       2.04209901        8       4.00000000       4.00000000       0.04074979      -0.04303916       0.00128299
Zr       1.42031528       4.42327296       6.13673699        8       4.00000000       4.00000000       0.04074979      -0.04303916      -0.00128299
Zr       4.45165672       7.35089804       2.04209901        8       4.00000000       4.00000000       0.05320176      -0.05115421       0.00128299
O        4.55672239       1.85661981      -0.00000000       16      -2.00000000      -2.00000000      -0.01967453       0.01834648       0.00000000
O        1.31524961       9.91755119      -0.00000000       16      -2.00000000      -2.00000000      -0.02730124       0.02875020       0.00000000
O        4.25123561       7.74370531      -0.00000000       16      -2.00000000      -2.00000000      -0.02730124       0.01834648       0.00000000
O        1.62073639       4.03046569      -0.00000000       16      -2.00000000      -2.00000000      -0.01967453       0.02875020       0.00000000
O        4.70256932       1.10550087       4.08941800       20      -2.00000000      -2.00000000      -0.01760133       0.03098644      -0.00000000
O        1.16940268      10.66867013       4.08941800       20      -2.00000000      -2.00000000      -0.02937445       0.01611025      -0.00000000
O        4.10538868       6.99258637       4.08941800       20      -2.00000000      -2.00000000      -0.02937445       0.03098644      -0.00000000
O        1.76658332       4.78158463       4.08941800       20      -2.00000000      -2.00000000      -0.01760133       0.01611025      -0.00000000
O        3.12999853       3.08379167       2.30409508       24      -2.00000000      -2.00000000      -0.03345472       0.03894801      -0.00556508
O        2.74197347       8.69037933       5.87474092       24      -2.00000000      -2.00000000      -0.01352106       0.00814867       0.00556508
O        2.74197347       8.69037933       2.30409508       24      -2.00000000      -2.00000000      -0.01352106       0.00814867      -0.00556508
O        3.12999853       3.08379167       5.87474092       24      -2.00000000      -2.00000000      -0.03345472       0.03894801       0.00556508
O        5.67795947       8.97087717       5.87474092       24      -2.00000000      -2.00000000      -0.01352106       0.03894801       0.00556508
O        0.19401253       2.80329383       2.30409508       24      -2.00000000      -2.00000000      -0.03345472       0.00814867      -0.00556508
O        0.19401253       2.80329383       5.87474092       24      -2.00000000      -2.00000000      -0.03345472       0.00814867       0.00556508
O        5.67795947       8.97087717       2.30409508       24      -2.00000000      -2.00000000      -0.01352106       0.03894801      -0.00556508
O        2.93598600       5.88708550       1.65175084       32      -2.00000000      -2.00000000      -0.02348789       0.02354834       0.00096873
O        2.93598600       5.88708550       6.52708516       32      -2.00000000      -2.00000000      -0.02348789       0.02354834      -0.00096873
O        0.00000000       0.00000000       6.52708516       32      -2.00000000      -2.00000000      -0.02348789       0.02354834      -0.00096873
O       -0.00000000       0.00000000       1.65175084       32      -2.00000000      -2.00000000      -0.02348789       0.02354834       0.00096873
O        2.93598600       0.00000000       1.87160782       36      -2.00000000      -2.00000000      -0.02348789       0.02354834       0.00119428
O        2.93598600       0.00000000       6.30722818       36      -2.00000000      -2.00000000      -0.02348789       0.02354834      -0.00119428
O        0.00000000       5.88708550       6.30722818       36      -2.00000000      -2.00000000      -0.02348789       0.02354834      -0.00119428
O        0.00000000       5.88708550       1.87160782       36      -2.00000000      -2.00000000      -0.02348789       0.02354834       0.00119428
40
Lattice="5.871415468073621 0.0 0.0 0.004860110764626059 11.766209493471498 0.0 -0.0005469978064762693 0.0009486725891909436 8.173308510138963" Properties=species:S:1:pos:R:3:spacegroup_kinds:I:1:field_charges:R:1:initial_charges:R:1:forces:R:3 spacegroup="P b a m" unit_cell=conventional occupancy="_JSON {\"0\": {\"Pb\": 1.0}, \"1\": {\"Pb\": 1.0}, \"2\": {\"Pb\": 1.0}, \"3\": {\"Pb\": 1.0}, \"4\": {\"Pb\": 1.0}, \"5\": {\"Pb\": 1.0}, \"6\": {\"Pb\": 1.0}, \"7\": {\"Pb\": 1.0}, \"8\": {\"Zr\": 1.0}, \"9\": {\"Zr\": 1.0}, \"10\": {\"Zr\": 1.0}, \"11\": {\"Zr\": 1.0}, \"12\": {\"Zr\": 1.0}, \"13\": {\"Zr\": 1.0}, \"14\": {\"Zr\": 1.0}, \"15\": {\"Zr\": 1.0}, \"16\": {\"O\": 1.0}, \"17\": {\"O\": 1.0}, \"18\": {\"O\": 1.0}, \"19\": {\"O\": 1.0}, \"20\": {\"O\": 1.0}, \"21\": {\"O\": 1.0}, \"22\": {\"O\": 1.0}, \"23\": {\"O\": 1.0}, \"24\": {\"O\": 1.0}, \"25\": {\"O\": 1.0}, \"26\": {\"O\": 1.0}, \"27\": {\"O\": 1.0}, \"28\": {\"O\": 1.0}, \"29\": {\"O\": 1.0}, \"30\": {\"O\": 1.0}, \"31\": {\"O\": 1.0}, \"32\": {\"O\": 1.0}, \"33\": {\"O\": 1.0}, \"34\": {\"O\": 1.0}, \"35\": {\"O\": 1.0}, \"36\": {\"O\": 1.0}, \"37\": {\"O\": 1.0}, \"38\": {\"O\": 1.0}, \"39\": {\"O\": 1.0}}" neb_image=1 energy=-39205.77921360416 polarization_c_per_m2="_JSON [0.0157891958189426, 0.001765752747080955, -0.0036392809632279292]" pbc="T T T"
Pb       1.18780812       1.42622671      -0.00867732        0       2.00000000       2.00000000       0.00591019      -0.01750223       0.00096233
Pb       4.71642581      10.28572621       0.00280132        0       2.00000000       2.00000000       0.00562276      -0.01327990       0.00282439
Pb       1.77576740       7.31248227       0.00308998        0       2.00000000       2.00000000       0.00425001      -0.00761265       0.00248560
Pb       4.12071258       4.40543225      -0.00878425        0       2.00000000       2.00000000       0.00212067      -0.00795764       0.00057202
Pb       1.22836532       1.49605552       4.08099498        4       2.00000000       2.00000000      -0.00966950      -0.00315635       0.00342700
Pb       4.64469710      10.24027556       4.08609796        4       2.00000000       2.00000000       0.01060560      -0.01122609       0.00319208
Pb       1.72968659       7.37133674       4.08632304        4       2.00000000       2.00000000       0.01954444      -0.00317068       0.00289327
Pb       4.18136233       4.34785191       4.08095937        4       2.00000000       2.00000000       0.00631717      -0.01089859       0.00355604
Zr       4.35956554       1.45411911       2.03672839        8       4.00000000       4.00000000      -0.00152085      -0.00669983      -0.00012045
Zr       1.52349574      10.29458453       6.12972888        8       4.00000000       4.00000000       0.00306745      -0.00393394      -0.00111235
Zr       1.52461032      10.29512897       2.04366729        8       4.00000000       4.00000000       0.00304921      -0.00298167       0.00235653
Zr       4.35896189       1.45369292       6.13366420        8       4.00000000       4.00000000      -0.00256475      -0.00632227       0.00004102
Zr       4.46302750       7.33647186       6.13510297        8       4.00000000       4.00000000       0.01192502      -0.00414100       0.00098754
Zr       1.42922102       4.40942616       2.04110267        8       4.00000000       4.00000000       0.00502797      -0.00636722       0.00214191
Zr       1.42874992       4.41085490       6.12936347        8       4.00000000       4.00000000       0.00322031      -0.00692261      -0.00215307
Zr       4.46410182       7.33503774       2.03841541        8       4.00000000       4.00000000       0.01198507      -0.00508790       0.00027791
O        4.53625496       1.86810917      -0.00038789       16      -2.00000000      -2.00000000       0.00060194       0.01188093       0.00000563
O        1.31225870       9.92995213       0.00063881       16      -2.00000000      -2.00000000      -0.01549386       0.00518442      -0.00139937
O        4.25090701       7.74357940       0.00055749       16      -2.00000000      -2.00000000      -0.00058243       0.00233082      -0.00110669
O        1.62667619       4.03748838      -0.00031999       16      -2.00000000      -2.00000000       0.00143865       0.00195282       0.00005710
O        4.69281916       1.11745270       4.08696372       20      -2.00000000      -2.00000000      -0.00512864      -0.00150927      -0.00021240
O        1.15953857      10.66859181       4.08702831       20      -2.00000000      -2.00000000      -0.01075476       0.00378566       0.00019068
O        4.11665214       7.00251975       4.08709043       20      -2.00000000      -2.00000000      -0.01518045       0.00526630       0.00002050
O        1.76736973       4.78620506       4.08684636       20      -2.00000000      -2.00000000       0.00705398       0.00852489      -0.00008776
O        3.12455163       3.08415852       2.30514045       24      -2.00000000      -2.00000000       0.00636249       0.00842278      -0.00186954
O        2.75308757       8.69618558       5.86882844       24      -2.00000000      -2.00000000       0.00398770      -0.00301371      -0.00469802
O        2.74754139       8.68933764       2.30430598       24      -2.00000000      -2.00000000       0.00247986      -0.00151620       0.00106419
O        3.13893563       3.09758810       5.87612966       24      -2.00000000      -2.00000000       0.00172195       0.00653096      -0.00014121
O        5.67379835       8.97723395       5.88569761       24      -2.00000000      -2.00000000      -0.00835057       0.00733160      -0.00356836
O        0.17487211       2.81918898       2.30798807       24      -2.00000000      -2.00000000      -0.00414963       0.00548075       0.01077654
O        0.18934923       2.80649092       5.87274472       24      -2.00000000      -2.00000000      -0.00877086       0.00744967      -0.01303605
O        5.66840944       8.98287409       2.28760781       24      -2.00000000      -2.00000000      -0.00949268       0.00621713      -0.00072209
O        2.93672627       5.89440086       1.65741147       32      -2.00000000      -2.00000000      -0.00602077       0.01378336      -0.00450120
O        2.92814105       5.90174515       6.51747003       32      -2.00000000      -2.00000000      -0.00368371       0.01290112       0.00552755
O       -0.00803769       0.00929506       6.52377777       32      -2.00000000      -2.00000000      -0.00176873       0.00075607      -0.00048244
O        0.00081299       0.01574464       1.65172284       32      -2.00000000      -2.00000000      -0.00362489      -0.00062900       0.00163871
O        2.91860000       0.01214956       1.87839664       36      -2.00000000      -2.00000000      -0.01417315       0.01107864      -0.00580789
O        2.90600093       0.02495382       6.29912885       36      -2.00000000      -2.00000000      -0.01456612       0.00814638       0.00067835
O       -0.00004578       5.87758813       6.30883989       36      -2.00000000      -2.00000000       0.00924197       0.00000653      -0.00700805
O        0.01242984       5.88941285       1.86875028       36      -2.00000000      -2.00000000       0.00996196      -0.00310204       0.00235007
40
Lattice="5.873276806696479 0.0 0.0 0.016787357091010216 11.76433995253997 0.0 -0.0020538216603574405 0.003293641096447687 8.178483555831429" Properties=species:S:1:pos:R:3:spacegroup_kinds:I:1:field_charges:R:1:initial_charges:R:1:forces:R:3 spacegroup="P b a m" unit_cell=conventional occupancy="_JSON {\"0\": {\"Pb\": 1.0}, \"1\": {\"Pb\": 1.0}, \"2\": {\"Pb\": 1.0}, \"3\": {\"Pb\": 1.0}, \"4\": {\"Pb\": 1.0}, \"5\": {\"Pb\": 1.0}, \"6\": {\"Pb\": 1.0}, \"7\": {\"Pb\": 1.0}, \"8\": {\"Zr\": 1.0}, \"9\": {\"Zr\": 1.0}, \"10\": {\"Zr\": 1.0}, \"11\": {\"Zr\": 1.0}, \"12\": {\"Zr\": 1.0}, \"13\": {\"Zr\": 1.0}, \"14\": {\"Zr\": 1.0}, \"15\": {\"Zr\": 1.0}, \"16\": {\"O\": 1.0}, \"17\": {\"O\": 1.0}, \"18\": {\"O\": 1.0}, \"19\": {\"O\": 1.0}, \"20\": {\"O\": 1.0}, \"21\": {\"O\": 1.0}, \"22\": {\"O\": 1.0}, \"23\": {\"O\": 1.0}, \"24\": {\"O\": 1.0}, \"25\": {\"O\": 1.0}, \"26\": {\"O\": 1.0}, \"27\": {\"O\": 1.0}, \"28\": {\"O\": 1.0}, \"29\": {\"O\": 1.0}, \"30\": {\"O\": 1.0}, \"31\": {\"O\": 1.0}, \"32\": {\"O\": 1.0}, \"33\": {\"O\": 1.0}, \"34\": {\"O\": 1.0}, \"35\": {\"O\": 1.0}, \"36\": {\"O\": 1.0}, \"37\": {\"O\": 1.0}, \"38\": {\"O\": 1.0}, \"39\": {\"O\": 1.0}}" neb_image=2 energy=-39205.77552180889 polarization_c_per_m2="_JSON [0.015650102924666284, -0.017240262035261043, -0.01461603492454135]" pbc="T T T"
Pb       1.19247800       1.41089383      -0.02899159        0       2.00000000       2.00000000       0.00300190      -0.00686066       0.00275351
Pb       4.73584055      10.26500880       0.00373379        0       2.00000000       2.00000000      -0.00106328      -0.00115262       0.01652153
Pb       1.78523492       7.29568239       0.00639262        0       2.00000000       2.00000000       0.00322661       0.00327411       0.01377007
Pb       4.12391977       4.38422533      -0.02895183        0       2.00000000       2.00000000       0.00240417       0.00368119       0.00207344
Pb       1.22384949       1.48469093       4.06882287        4       2.00000000       2.00000000      -0.01513147       0.00724714       0.01129697
Pb       4.64726286      10.22763760       4.08540843        4       2.00000000       2.00000000       0.01659574      -0.00071292       0.00877118
Pb       1.75314528       7.35978948       4.08655542        4       2.00000000       2.00000000       0.01566036       0.00951432       0.00875269
Pb       4.18643120       4.33539126       4.06910724        4       2.00000000       2.00000000       0.00751674      -0.00245911       0.01125782
Zr       4.36078884       1.45024314       2.03349465        8       4.00000000       4.00000000      -0.00388392      -0.00319964       0.00170289
Zr       1.53231114      10.29020121       6.13038688        8       4.00000000       4.00000000      -0.00196952       0.00012694       0.00231540
Zr       1.53505591      10.29122697       2.04636384        8       4.00000000       4.00000000       0.00178217       0.00458893       0.00437430
Zr       4.35845334       1.45031475       6.13458696        8       4.00000000       4.00000000      -0.00535362      -0.00611161       0.00043781
Zr       4.47395411       7.33310179       6.14087168        8       4.00000000       4.00000000       0.01097217       0.00264043       0.00148858
Zr       1.43377130       4.40470738       2.03960204        8       4.00000000       4.00000000       0.00570430      -0.00448855       0.00402201
Zr       1.43214248       4.40833837       6.12915565        8       4.00000000       4.00000000       0.00240004      -0.00271822      -0.00185463
Zr       4.47664560       7.32946660       2.03679161        8       4.00000000       4.00000000       0.01369406      -0.00179143       0.00491442
O        4.51386651       1.86763011      -0.00103086       16      -2.00000000      -2.00000000       0.02152986       0.01148395      -0.00045306
O        1.33263628       9.94129873       0.00163900       16      -2.00000000      -2.00000000      -0.02898862      -0.00803215      -0.00162676
O        4.25427797       7.74280300       0.00138822       16      -2.00000000      -2.00000000       0.00744851       0.00123060      -0.00059886
O        1.64786474       4.04774846      -0.00077253       16      -2.00000000      -2.00000000      -0.00794158      -0.01048556      -0.00011861
O        4.69352105       1.12819172       4.09073678       20      -2.00000000      -2.00000000      -0.00305411      -0.01499375      -0.00131238
O        1.15849678      10.66768321       4.09065854       20      -2.00000000      -2.00000000      -0.00694332       0.00268717       0.00047995
O        4.14335570       7.01468103       4.09081262       20      -2.00000000      -2.00000000      -0.03349830      -0.01057568       0.00002697
O        1.76570709       4.78309338       4.09017881       20      -2.00000000      -2.00000000       0.01839574       0.01136395      -0.00071697
O        3.11281740       3.07310854       2.31724302       24      -2.00000000      -2.00000000       0.01375930       0.01283795      -0.00583757
O        2.77633681       8.71255137       5.86498635       24      -2.00000000      -2.00000000      -0.00089721      -0.01152462      -0.00783800
O        2.75909599       8.69120050       2.31529694       24      -2.00000000      -2.00000000      -0.00248972      -0.00831671      -0.00440160
O        3.15935194       3.11727599       5.88854719       24      -2.00000000      -2.00000000       0.00257961       0.00562479      -0.00121711
O        5.68549693       8.97932424       5.90884816       24      -2.00000000      -2.00000000      -0.00850136       0.00080882      -0.02581942
O        0.15387722       2.84031561       2.30832886       24      -2.00000000      -2.00000000       0.00543532       0.00171504       0.02108287
O        0.20051749       2.79853992       5.89588916       24      -2.00000000      -2.00000000      -0.00461517       0.00821291      -0.03006391
O        5.66907294       8.99624704       2.27316477       24      -2.00000000      -2.00000000      -0.00884546      -0.00189689       0.01062814
O        2.95008527       5.89586372       1.67485116       32      -2.00000000      -2.00000000      -0.00624569       0.00619442      -0.01961402
O        2.92339794       5.91870795       6.51047931       32      -2.00000000      -2.00000000      -0.00090366       0.00515740       0.01776680
O       -0.01841158       0.01148754       6.53371199       32      -2.00000000      -2.00000000       0.00038117      -0.00495714      -0.00575863
O        0.01136931       0.03272359       1.65464676       32      -2.00000000      -2.00000000      -0.00553380      -0.00886387       0.00312378
O        2.92369849       0.00466770       1.90410867       36      -2.00000000      -2.00000000      -0.01285097       0.01386237      -0.02786446
O        2.88151703       0.04791899       6.29306695       36      -2.00000000      -2.00000000      -0.01007240       0.00198986       0.00654074
O       -0.00056357       5.86900460       6.32819707       36      -2.00000000      -2.00000000       0.00925014       0.00409871      -0.02243155
O        0.03962330       5.90783048       1.86742963       36      -2.00000000      -2.00000000       0.00704527      -0.00919986       0.00342569
40
Lattice="5.874381085052206 0.0 0.0 0.026948232584086115 11.762988983954811 0.0 -0.0035521800913935584 0.005420452966189992 8.18421228973124" Properties=species:S:1:pos:R:3:spacegroup_kinds:I:1:field_charges:R:1:initial_charges:R:1:forces:R:3 spacegroup="P b a m" unit_cell=conventional occupancy="_JSON {\"0\": {\"Pb\": 1.0}, \"1\": {\"Pb\": 1.0}, \"2\": {\"Pb\": 1.0}, \"3\": {\"Pb\": 1.0}, \"4\": {\"Pb\": 1.0}, \"5\": {\"Pb\": 1.0}, \"6\": {\"Pb\": 1.0}, \"7\": {\"Pb\": 1.0}, \"8\": {\"Zr\": 1.0}, \"9\": {\"Zr\": 1.0}, \"10\": {\"Zr\": 1.0}, \"11\": {\"Zr\": 1.0}, \"12\": {\"Zr\": 1.0}, \"13\": {\"Zr\": 1.0}, \"14\": {\"Zr\": 1.0}, \"15\": {\"Zr\": 1.0}, \"16\": {\"O\": 1.0}, \"17\": {\"O\": 1.0}, \"18\": {\"O\": 1.0}, \"19\": {\"O\": 1.0}, \"20\": {\"O\": 1.0}, \"21\": {\"O\": 1.0}, \"22\": {\"O\": 1.0}, \"23\": {\"O\": 1.0}, \"24\": {\"O\": 1.0}, \"25\": {\"O\": 1.0}, \"26\": {\"O\": 1.0}, \"27\": {\"O\": 1.0}, \"28\": {\"O\": 1.0}, \"29\": {\"O\": 1.0}, \"30\": {\"O\": 1.0}, \"31\": {\"O\": 1.0}, \"32\": {\"O\": 1.0}, \"33\": {\"O\": 1.0}, \"34\": {\"O\": 1.0}, \"35\": {\"O\": 1.0}, \"36\": {\"O\": 1.0}, \"37\": {\"O\": 1.0}, \"38\": {\"O\": 1.0}, \"39\": {\"O\": 1.0}}" neb_image=3 energy=-39205.763324730025 polarization_c_per_m2="_JSON [0.015446994498554285, -0.03585832927625267, -0.027180669223775964]" pbc="T T T"
Pb       1.19884316       1.39703753      -0.04879223        0       2.00000000       2.00000000      -0.00103297       0.00259118       0.00230191
Pb       4.75007760      10.24494929       0.00038167        0       2.00000000       2.00000000      -0.00002933       0.01137881       0.03194523
Pb       1.79170934       7.28028727       0.00737233        0       2.00000000       2.00000000       0.00832814       0.01045029       0.02633587
Pb       4.12896929       4.36285260      -0.04844652        0       2.00000000       2.00000000      -0.00109751       0.01352801       0.00290327
Pb       1.22039902       1.47165299       4.05591848        4       2.00000000       2.00000000      -0.02226552       0.01862125       0.01795480
Pb       4.64686354      10.21459089       4.08295015        4       2.00000000       2.00000000       0.02316180       0.00971996       0.01402491
Pb       1.77345471       7.34793476       4.08519382        4       2.00000000       2.00000000       0.01527760       0.02184274       0.01573596
Pb       4.18989523       4.32363948       4.05737872        4       2.00000000       2.00000000       0.00698205       0.00354131       0.01729490
Zr       4.36179449       1.44645113       2.03060707        8       4.00000000       4.00000000      -0.00554100      -0.00097709       0.00269151
Zr       1.53926129      10.28643665       6.13096831        8       4.00000000       4.00000000      -0.00555189       0.00200543       0.00586192
Zr       1.54314891      10.28797320       2.04827243        8       4.00000000       4.00000000       0.00335044       0.00970587       0.00702722
Zr       4.35770336       1.44747725       6.13543524        8       4.00000000       4.00000000      -0.00688580      -0.00735268       0.00217318
Zr       4.48240849       7.32982906       6.14624254        8       4.00000000       4.00000000       0.01221477       0.00722763       0.00347893
Zr       1.43725218       4.40081748       2.03832624        8       4.00000000       4.00000000       0.00603974      -0.00371098       0.00565964
Zr       1.43455850       4.40619477       6.12960775        8       4.00000000       4.00000000       0.00256297      -0.00022487      -0.00124209
Zr       4.48652831       7.32471459       2.03525992        8       4.00000000       4.00000000       0.01688451      -0.00010412       0.00876351
O        4.48968951       1.86558438      -0.00139787       16      -2.00000000      -2.00000000       0.03743422       0.01347398      -0.00111484
O        1.35229215       9.95413708       0.00251409       16      -2.00000000      -2.00000000      -0.04416118      -0.02073182      -0.00143046
O        4.25585654       7.74101978       0.00215179       16      -2.00000000      -2.00000000       0.01407710       0.00314372       0.00040242
O        1.66733042       4.06052546      -0.00089200       16      -2.00000000      -2.00000000      -0.01704615      -0.02416640      -0.00028097
O        4.69348123       1.14091162       4.09508419       20      -2.00000000      -2.00000000      -0.00211661      -0.02776845      -0.00246692
O        1.15716449      10.66645952       4.09469614       20      -2.00000000      -2.00000000      -0.00558873       0.00328631       0.00056727
O        4.16899463       7.02948381       4.09485268       20      -2.00000000      -2.00000000      -0.05026809      -0.02685913       0.00003799
O        1.76115464       4.77876696       4.09397841       20      -2.00000000      -2.00000000       0.03011349       0.01544936      -0.00133002
O        3.10014024       3.06202009       2.32917749       24      -2.00000000      -2.00000000       0.02013037       0.01734127      -0.00916451
O        2.79769965       8.72883143       5.86355611       24      -2.00000000      -2.00000000      -0.00735594      -0.02034683      -0.01216350
O        2.77003693       8.69459088       2.32592765       24      -2.00000000      -2.00000000      -0.00604238      -0.01495167      -0.00828545
O        3.17657893       3.13490251       5.90137224       24      -2.00000000      -2.00000000       0.00527847       0.00592814      -0.00115188
O        5.69587873       8.98087059       5.93386932       24      -2.00000000      -2.00000000      -0.01222625      -0.00117427      -0.04684352
O        0.13300258       2.86108310       2.30674194       24      -2.00000000      -2.00000000       0.01261117      -0.00177684       0.03141156
O        0.20925678       2.79200431       5.92192442       24      -2.00000000      -2.00000000       0.00098607       0.00668714      -0.04697020
O        5.66988362       9.00776079       2.26028815       24      -2.00000000      -2.00000000      -0.00855933      -0.00674279       0.02060861
O        2.96066895       5.89829171       1.69641389       32      -2.00000000      -2.00000000      -0.00681298      -0.00007991      -0.03971099
O        2.91809991       5.93491439       6.50183062       32      -2.00000000      -2.00000000       0.00186469      -0.00200380       0.03206453
O       -0.02833227       0.01328279       6.54330543       32      -2.00000000      -2.00000000       0.00327025      -0.00793067      -0.00881261
O        0.02284663       0.04998572       1.66125327       32      -2.00000000      -2.00000000      -0.00778891      -0.01560973      -0.00104917
O        2.92987184      -0.00360626       1.93207690       36      -2.00000000      -2.00000000      -0.01378663       0.01737377      -0.04780369
O        2.85938422       0.06841706       6.28752112       36      -2.00000000      -2.00000000      -0.00846713      -0.00137011       0.01265239
O       -0.00088259       5.86206673       6.34691041       36      -2.00000000      -2.00000000       0.00891976       0.00654190      -0.03532093
O        0.06412765       5.92538536       1.86756416       36      -2.00000000      -2.00000000       0.00313670      -0.01595591       0.00324418
40