40
Lattice="5.871972 0.0 0.0 0.0 11.774171 0.0 0.0 0.0 8.178836" Properties=species:S:1:pos:R:3:spacegroup_kinds:I:1:field_charges:R:1:initial_charges:R:1:forces:R:3 spacegroup="P b a m" unit_cell=conventional occupancy="_JSON {\"0\": {\"Pb\": 1.0}, \"1\": {\"Pb\": 1.0}, \"2\": {\"Pb\": 1.0}, \"3\": {\"Pb\": 1.0}, \"4\": {\"Pb\": 1.0}, \"5\": {\"Pb\": 1.0}, \"6\": {\"Pb\": 1.0}, \"7\": {\"Pb\": 1.0}, \"8\": {\"Zr\": 1.0}, \"9\": {\"Zr\": 1.0}, \"10\": {\"Zr\": 1.0}, \"11\": {\"Zr\": 1.0}, \"12\": {\"Zr\": 1.0}, \"13\": {\"Zr\": 1.0}, \"14\": {\"Zr\": 1.0}, \"15\": {\"Zr\": 1.0}, \"16\": {\"O\": 1.0}, \"17\": {\"O\": 1.0}, \"18\": {\"O\": 1.0}, \"19\": {\"O\": 1.0}, \"20\": {\"O\": 1.0}, \"21\": {\"O\": 1.0}, \"22\": {\"O\": 1.0}, \"23\": {\"O\": 1.0}, \"24\": {\"O\": 1.0}, \"25\": {\"O\": 1.0}, \"26\": {\"O\": 1.0}, \"27\": {\"O\": 1.0}, \"28\": {\"O\": 1.0}, \"29\": {\"O\": 1.0}, \"30\": {\"O\": 1.0}, \"31\": {\"O\": 1.0}, \"32\": {\"O\": 1.0}, \"33\": {\"O\": 1.0}, \"34\": {\"O\": 1.0}, \"35\": {\"O\": 1.0}, \"36\": {\"O\": 1.0}, \"37\": {\"O\": 1.0}, \"38\": {\"O\": 1.0}, \"39\": {\"O\": 1.0}}" neb_image=0 energy=-39205.764739708866 polarization_c_per_m2="_JSON [-0.0012611573750599988, 0.0349032942069816, -1.3526432333244794e-15]" pbc="T T T"
Pb       1.17373646       1.45287285      -0.00000000        0       2.00000000       2.00000000       0.01811033      -0.02203254      -0.00000000
Pb       4.69823554      10.32129815      -0.00000000        0       2.00000000       2.00000000       0.02886545      -0.02506414      -0.00000000
Pb       1.76224954       7.33995835      -0.00000000        0       2.00000000       2.00000000       0.02886545      -0.02203254      -0.00000000
Pb       4.10972246       4.43421265      -0.00000000        0       2.00000000       2.00000000       0.01811033      -0.02506414      -0.00000000
Pb       1.22777814       1.51267559       4.08941800        4       2.00000000       2.00000000       0.01833476      -0.01928032       0.00000000
Pb       4.64419386      10.26149541       4.08941800        4       2.00000000       2.00000000       0.02864101      -0.02781637       0.00000000
Pb       1.70820786       7.39976109       4.08941800        4       2.00000000       2.00000000       0.02864101      -0.01928032       0.00000000
Pb       4.16376414       4.37440991       4.08941800        4       2.00000000       2.00000000       0.01833476      -0.02781637       0.00000000
Zr       4.35630128       1.46381254       2.04209901        8       4.00000000       4.00000000       0.04074979      -0.05115421       0.00128299
Zr       1.51567072      10.31035846       6.13673699        8       4.00000000       4.00000000       0.05320176      -0.04303916      -0.00128299
Zr       1.51567072      10.31035846       2.04209901        8       4.00000000       4.00000000       0.05320176      -0.04303916       0.00128299
Zr       4.35630128       1.46381254       6.13673699        8       4.00000000       4.00000000       0.04074979      -0.05115421      -0.00128299
Zr       4.45165672       7.35089804       6.13673699        8       4.00000000       4.00000000       0.05320176      -0.05115421      -0.00128299
Zr       1.42031528       4.42327296       2.04209901        8       4.00000000       4.00000000       0.04074979      -0.04303916       0.00128299
Zr       1.42031528       4.42327296       6.13673699        8       4.00000000       4.00000000       0.04074979      -0.04303916      -0.00128299
Zr       4.45165672       7.35089804       2.04209901        8       4.00000000       4.00000000       0.05320176      -0.05115421       0.00128299
O        4.55672239       1.85661981      -0.00000000       16      -2.00000000      -2.00000000      -0.01967453       0.01834648       0.00000000
O        1.31524961       9.91755119      -0.00000000       16      -2.00000000      -2.00000000      -0.02730124       0.02875020       0.00000000
O        4.25123561       7.74370531      -0.00000000       16      -2.00000000      -2.00000000      -0.02730124       0.01834648       0.00000000
O        1.62073639       4.03046569      -0.00000000       16      -2.00000000      -2.00000000      -0.01967453       0.02875020       0.00000000
O        4.70256932       1.10550087       4.08941800       20      -2.00000000      -2.00000000      -0.01760133       0.03098644      -0.00000000
O        1.16940268      10.66867013       4.08941800       20      -2.00000000      -2.00000000      -0.02937445       0.01611025      -0.00000000
O        4.10538868       6.99258637       4.08941800       20      -2.00000000      -2.00000000      -0.02937445       0.03098644      -0.00000000
O        1.76658332       4.78158463       4.08941800       20      -2.00000000      -2.00000000      -0.01760133       0.01611025      -0.00000000
O        3.12999853       3.08379167       2.30409508       24      -2.00000000      -2.00000000      -0.03345472       0.03894801      -0.00556508
O        2.74197347       8.69037933       5.87474092       24      -2.00000000      -2.00000000      -0.01352106       0.00814867       0.00556508
O        2.74197347       8.69037933       2.30409508       24      -2.00000000      -2.00000000      -0.01352106       0.00814867      -0.00556508
O        3.12999853       3.08379167       5.87474092       24      -2.00000000      -2.00000000      -0.03345472       0.03894801       0.00556508
O        5.67795947       8.97087717       5.87474092       24      -2.00000000      -2.00000000      -0.01352106       0.03894801       0.00556508
O        0.19401253       2.80329383       2.30409508       24      -2.00000000      -2.00000000      -0.03345472       0.00814867      -0.00556508
O        0.19401253       2.80329383       5.87474092       24      -2.00000000      -2.00000000      -0.03345472       0.00814867       0.00556508
O        5.67795947       8.97087717       2.30409508       24      -2.00000000      -2.00000000      -0.01352106       0.03894801      -0.00556508
O        2.93598600       5.88708550       1.65175084       32      -2.00000000      -2.00000000      -0.02348789       0.02354834       0.00096873
O        2.93598600       5.88708550       6.52708516       32      -2.00000000      -2.00000000      -0.02348789       0.02354834      -0.00096873
O        0.00000000       0.00000000       6.52708516       32      -2.00000000      -2.00000000      -0.02348789       0.02354834      -0.00096873
O       -0.00000000       0.00000000       1.65175084       32      -2.00000000      -2.00000000      -0.02348789       0.02354834       0.00096873
O        2.93598600       0.00000000       1.87160782       36      -2.00000000      -2.00000000      -0.02348789       0.02354834       0.00119428
O        2.93598600       0.00000000       6.30722818       36      -2.00000000      -2.00000000      -0.02348789       0.02354834      -0.00119428
O        0.00000000       5.88708550       6.30722818       36      -2.00000000      -2.00000000      -0.02348789       0.02354834      -0.00119428
O        0.00000000       5.88708550       1.87160782       36      -2.00000000      -2.00000000      -0.02348789       0.02354834       0.00119428
40
Lattice="5.86949295899327 0.0 0.0 -0.004741114459098164 11.765890743213625 0.0 -1.793454073615053e-05 -3.940946625644747e-07 8.171538035727417" Properties=species:S:1:pos:R:3:spacegroup_kinds:I:1:field_charges:R:1:initial_charges:R:1:forces:R:3 spacegroup="P b a m" unit_cell=conventional occupancy="_JSON {\"0\": {\"Pb\": 1.0}, \"1\": {\"Pb\": 1.0}, \"2\": {\"Pb\": 1.0}, \"3\": {\"Pb\": 1.0}, \"4\": {\"Pb\": 1.0}, \"5\": {\"Pb\": 1.0}, \"6\": {\"Pb\": 1.0}, \"7\": {\"Pb\": 1.0}, \"8\": {\"Zr\": 1.0}, \"9\": {\"Zr\": 1.0}, \"10\": {\"Zr\": 1.0}, \"11\": {\"Zr\": 1.0}, \"12\": {\"Zr\": 1.0}, \"13\": {\"Zr\": 1.0}, \"14\": {\"Zr\": 1.0}, \"15\": {\"Zr\": 1.0}, \"16\": {\"O\": 1.0}, \"17\": {\"O\": 1.0}, \"18\": {\"O\": 1.0}, \"19\": {\"O\": 1.0}, \"20\": {\"O\": 1.0}, \"21\": {\"O\": 1.0}, \"22\": {\"O\": 1.0}, \"23\": {\"O\": 1.0}, \"24\": {\"O\": 1.0}, \"25\": {\"O\": 1.0}, \"26\": {\"O\": 1.0}, \"27\": {\"O\": 1.0}, \"28\": {\"O\": 1.0}, \"29\": {\"O\": 1.0}, \"30\": {\"O\": 1.0}, \"31\": {\"O\": 1.0}, \"32\": {\"O\": 1.0}, \"33\": {\"O\": 1.0}, \"34\": {\"O\": 1.0}, \"35\": {\"O\": 1.0}, \"36\": {\"O\": 1.0}, \"37\": {\"O\": 1.0}, \"38\": {\"O\": 1.0}, \"39\": {\"O\": 1.0}}" neb_image=1 energy=-39205.78200483051 polarization_c_per_m2="_JSON [0.020223128495314616, -0.007107301802604974, 1.702959599122995e-05]" pbc="T T T"
Pb       1.19175722       1.41334576       0.00017962        0       2.00000000       2.00000000       0.00423714      -0.00857049      -0.00002036
Pb       4.70486375      10.27847604      -0.00016248        0       2.00000000       2.00000000       0.00280406      -0.00790146       0.00000925
Pb       1.76980030       7.30678972      -0.00015753        0       2.00000000       2.00000000       0.00247929      -0.00622016       0.00001017
Pb       4.11711721       4.39882158       0.00019712        0       2.00000000       2.00000000       0.00240038      -0.00718004      -0.00002264
Pb       1.22260170       1.49265576       4.08584327        4       2.00000000       2.00000000      -0.00093439      -0.00421067      -0.00001388
Pb       4.63386653      10.23406819       4.08572505        4       2.00000000       2.00000000      -0.00096943      -0.00449214       0.00000052
Pb       1.72850630       7.36604209       4.08572278        4       2.00000000       2.00000000       0.00533296      -0.00632701       0.00000047
Pb       4.18547983       4.34264907       4.08583778        4       2.00000000       2.00000000       0.00560225      -0.00636599      -0.00001083
Zr       4.35582469       1.45177324       2.03684029        8       4.00000000       4.00000000       0.00041646      -0.00243039      -0.00077184
Zr       1.51438163      10.29145326       6.12765528        8       4.00000000       4.00000000       0.00075006      -0.00258707      -0.00079925
Zr       1.51435961      10.29141489       2.04385713        8       4.00000000       4.00000000       0.00075300      -0.00258345       0.00079930
Zr       4.35584152       1.45181436       6.13474034        8       4.00000000       4.00000000       0.00041501      -0.00243371       0.00076453
Zr       4.45929968       7.33207617       6.13419062        8       4.00000000       4.00000000       0.00276087      -0.00301796       0.00065507
Zr       1.42812658       4.40710293       2.04322345        8       4.00000000       4.00000000       0.00225940      -0.00289388       0.00064794
Zr       1.42814778       4.40706443       6.12835378        8       4.00000000       4.00000000       0.00225746      -0.00289183      -0.00065348
Zr       4.45927709       7.33211728       2.03731824        8       4.00000000       4.00000000       0.00276403      -0.00302092      -0.00065360
O        4.53365324       1.87314010       0.00000940       16      -2.00000000      -2.00000000      -0.00455008       0.00393610      -0.00000091
O        1.29460948       9.93164672      -0.00000881       16      -2.00000000      -2.00000000      -0.00356497       0.00467292       0.00000115
O        4.25041798       7.74400663      -0.00000992       16      -2.00000000      -2.00000000       0.00094633       0.00126309       0.00000144
O        1.62326779       4.03701046       0.00000851       16      -2.00000000      -2.00000000       0.00110952       0.00208039      -0.00000031
O        4.68364956       1.11449419       4.08576454       20      -2.00000000      -2.00000000      -0.00366964       0.00215279       0.00000058
O        1.14944005      10.66887865       4.08577028       20      -2.00000000      -2.00000000      -0.00335958       0.00169351       0.00000054
O        4.10826501       7.00360322       4.08576980       20      -2.00000000      -2.00000000       0.00168578       0.00354046       0.00000051
O        1.76971642       4.78880848       4.08576343       20      -2.00000000      -2.00000000       0.00130368       0.00233634       0.00000089
O        3.13231743       3.09484195       2.29813313       24      -2.00000000      -2.00000000       0.00104910       0.00288782      -0.00083753
O        2.74584609       8.69552199       5.86942183       24      -2.00000000      -2.00000000       0.00194547       0.00254696      -0.00002835
O        2.74607118       8.69573655       2.30221025       24      -2.00000000      -2.00000000       0.00193194       0.00253190       0.00002666
O        3.13204462       3.09458905       5.87324832       24      -2.00000000      -2.00000000       0.00108098       0.00291596       0.00085888
O        5.66030350       8.98162115       5.88284968       24      -2.00000000      -2.00000000      -0.00254536       0.00374822       0.00295204
O        0.17663423       2.81607415       2.31241741       24      -2.00000000      -2.00000000      -0.00363704       0.00333054       0.00233053
O        0.17636493       2.81632757       5.85898974       24      -2.00000000      -2.00000000      -0.00360556       0.00329982      -0.00231487
O        5.66052771       8.98141148       2.28879784       24      -2.00000000      -2.00000000      -0.00255839       0.00376174      -0.00295604
O        2.92609878       5.90245114       1.65377499       32      -2.00000000      -2.00000000      -0.00133699       0.00429523       0.00079055
O        2.92630248       5.90228135       6.51776277       32      -2.00000000      -2.00000000      -0.00135506       0.00430981      -0.00078757
O       -0.00711416       0.01290703       6.52018799       32      -2.00000000      -2.00000000      -0.00161237       0.00283705      -0.00023780
O       -0.00731805       0.01273712       1.65132877       32      -2.00000000      -2.00000000      -0.00159007       0.00285564       0.00024631
O        2.90066958       0.02620883       1.86864285       36      -2.00000000      -2.00000000      -0.00752214       0.00577383      -0.00028636
O        2.90098318       0.02591116       6.30289722       36      -2.00000000      -2.00000000      -0.00755232       0.00580128       0.00029021
O        0.00678158       5.88422781       6.30122578       36      -2.00000000      -2.00000000       0.00202488       0.00026425      -0.00007979
O        0.00646223       5.88392554       1.87028802       36      -2.00000000      -2.00000000       0.00205333       0.00029151       0.00008788
40
Lattice="5.870284413353987 0.0 0.0 -0.007968779932769059 11.765295202564582 0.0 0.0029305920057318855 7.209795021447542e-05 8.172433971159583" Properties=species:S:1:pos:R:3:spacegroup_kinds:I:1:field_charges:R:1:initial_charges:R:1:forces:R:3 spacegroup="P b a m" unit_cell=conventional occupancy="_JSON {\"0\": {\"Pb\": 1.0}, \"1\": {\"Pb\": 1.0}, \"2\": {\"Pb\": 1.0}, \"3\": {\"Pb\": 1.0}, \"4\": {\"Pb\": 1.0}, \"5\": {\"Pb\": 1.0}, \"6\": {\"Pb\": 1.0}, \"7\": {\"Pb\": 1.0}, \"8\": {\"Zr\": 1.0}, \"9\": {\"Zr\": 1.0}, \"10\": {\"Zr\": 1.0}, \"11\": {\"Zr\": 1.0}, \"12\": {\"Zr\": 1.0}, \"13\": {\"Zr\": 1.0}, \"14\": {\"Zr\": 1.0}, \"15\": {\"Zr\": 1.0}, \"16\": {\"O\": 1.0}, \"17\": {\"O\": 1.0}, \"18\": {\"O\": 1.0}, \"19\": {\"O\": 1.0}, \"20\": {\"O\": 1.0}, \"21\": {\"O\": 1.0}, \"22\": {\"O\": 1.0}, \"23\": {\"O\": 1.0}, \"24\": {\"O\": 1.0}, \"25\": {\"O\": 1.0}, \"26\": {\"O\": 1.0}, \"27\": {\"O\": 1.0}, \"28\": {\"O\": 1.0}, \"29\": {\"O\": 1.0}, \"30\": {\"O\": 1.0}, \"31\": {\"O\": 1.0}, \"32\": {\"O\": 1.0}, \"33\": {\"O\": 1.0}, \"34\": {\"O\": 1.0}, \"35\": {\"O\": 1.0}, \"36\": {\"O\": 1.0}, \"37\": {\"O\": 1.0}, \"38\": {\"O\": 1.0}, \"39\": {\"O\": 1.0}}" neb_image=2 energy=-39205.781769634435 polarization_c_per_m2="_JSON [0.023070281727040048, -0.02354085800918012, -0.00487121318018557]" pbc="T T T"
Pb       1.19790269       1.39531266      -0.03006599        0       2.00000000       2.00000000       0.00032560       0.00070664       0.00502949
Pb       4.70348998      10.26143161       0.02377103        0       2.00000000       2.00000000      -0.00040196       0.00292892      -0.00023198
Pb       1.77156562       7.29675625       0.02342897        0       2.00000000       2.00000000      -0.00091332       0.00136691      -0.00086680
Pb       4.11807891       4.38542014      -0.03305941        0       2.00000000       2.00000000      -0.00016276       0.00230444       0.00459074
Pb       1.21527034       1.48508626       4.07179495        4       2.00000000       2.00000000       0.00173598       0.00192260       0.00432900
Pb       4.62665313      10.22609668       4.09185793        4       2.00000000       2.00000000       0.00101022       0.00122426       0.00081936
Pb       1.73751064       7.35433694       4.09209774        4       2.00000000       2.00000000      -0.00152431       0.00136955       0.00092997
Pb       4.19415057       4.32965249       4.07357799        4       2.00000000       2.00000000      -0.00023017       0.00236792       0.00275124
Zr       4.35603263       1.45087445       2.03146509        8       4.00000000       4.00000000       0.00045434       0.00052762       0.00112581
Zr       1.50920208      10.28363295       6.12829897        8       4.00000000       4.00000000       0.00068343       0.00082610       0.00042399
Zr       1.51272303      10.28978681       2.04734810        8       4.00000000       4.00000000       0.00007682       0.00012214       0.00003274
Zr       4.35372683       1.44448671       6.13295188        8       4.00000000       4.00000000       0.00074692       0.00111897       0.00077155
Zr       4.46222330       7.33046859       6.13790637        8       4.00000000       4.00000000      -0.00043716       0.00053083       0.00002622
Zr       1.43326845       4.40055612       2.04109752        8       4.00000000       4.00000000      -0.00036224       0.00041007       0.00055773
Zr       1.43025147       4.40615100       6.12436762        8       4.00000000       4.00000000      -0.00020538       0.00034155       0.00086141
Zr       4.46587204       7.32421511       2.03867187        8       4.00000000       4.00000000      -0.00093367       0.00079959       0.00015487
O        4.52006004       1.87523358      -0.00150597       16      -2.00000000      -2.00000000       0.00277206       0.00081693       0.00015013
O        1.28590030       9.93932098       0.00152420       16      -2.00000000      -2.00000000       0.00075275      -0.00170988      -0.00031554
O        4.25723615       7.74401781       0.00175660       16      -2.00000000      -2.00000000      -0.00102331      -0.00000607      -0.00025625
O        1.63007464       4.04084968      -0.00118213       16      -2.00000000      -2.00000000      -0.00162574      -0.00127334      -0.00001213
O        4.67708311       1.11564730       4.08700669       20      -2.00000000      -2.00000000       0.00099314      -0.00199454      -0.00023462
O        1.14278862      10.66636628       4.08626300       20      -2.00000000      -2.00000000       0.00094747       0.00092991      -0.00027854
O        4.11634915       7.01346636       4.08630941       20      -2.00000000      -2.00000000      -0.00159225      -0.00218821      -0.00021954
O        1.77302538       4.79262598       4.08726018       20      -2.00000000      -2.00000000       0.00007706       0.00009919      -0.00027484
O        3.10909313       3.07442541       2.31417107       24      -2.00000000      -2.00000000       0.00371541       0.00290474      -0.00238630
O        2.76499039       8.71495605       5.86753419       24      -2.00000000      -2.00000000      -0.00075470      -0.00105655      -0.00112962
O        2.73165813       8.68268480       2.29252452       24      -2.00000000      -2.00000000       0.00020600       0.00033533       0.00029049
O        3.15537075       3.11651284       5.88576023       24      -2.00000000      -2.00000000      -0.00293483      -0.00267245      -0.00220186
O        5.67031370       8.97408240       5.88318828       24      -2.00000000      -2.00000000       0.00066247      -0.00063243      -0.00197984
O        0.14362540       2.84860581       2.32845907       24      -2.00000000      -2.00000000       0.00490480      -0.00488652      -0.00082750
O        0.18934161       2.80551279       5.86627850       24      -2.00000000      -2.00000000      -0.00199584       0.00177376      -0.00340731
O        5.63723086       9.00526051       2.27409926       24      -2.00000000      -2.00000000       0.00151501      -0.00205483       0.00116679
O        2.94818796       5.89103678       1.65781593       32      -2.00000000      -2.00000000      -0.00238660       0.00084113      -0.00186140
O        2.91648515       5.91761145       6.51583836       32      -2.00000000      -2.00000000       0.00005071      -0.00104473       0.00020991
O       -0.02272606       0.00667225       6.52114795       32      -2.00000000      -2.00000000       0.00194820       0.00049384      -0.00003061
O        0.01057411       0.03475029       1.65706737       32      -2.00000000      -2.00000000      -0.00287222      -0.00369140      -0.00287886
O        2.91575598       0.00923487       1.87066075       36      -2.00000000      -2.00000000      -0.00195355       0.00235102      -0.00326956
O        2.86575350       0.05659302       6.30300758       36      -2.00000000      -2.00000000       0.00377490      -0.00260376       0.00055774
O       -0.00379325       5.86943930       6.30391855       36      -2.00000000      -2.00000000      -0.00038978       0.00040515      -0.00089214
O        0.04627043       5.91729549       1.87452904       36      -2.00000000      -2.00000000      -0.00465349      -0.00400441      -0.00122393
40
Lattice="5.8737288113845905 0.0 0.0 -0.00553431878480603 11.762808760771138 0.0 0.005929366924523965 0.00031682353295168044 8.177475635145052" Properties=species:S:1:pos:R:3:spacegroup_kinds:I:1:field_charges:R:1:initial_charges:R:1:forces:R:3 spacegroup="P b a m" unit_cell=conventional occupancy="_JSON {\"0\": {\"Pb\": 1.0}, \"1\": {\"Pb\": 1.0}, \"2\": {\"Pb\": 1.0}, \"3\": {\"Pb\": 1.0}, \"4\": {\"Pb\": 1.0}, \"5\": {\"Pb\": 1.0}, \"6\": {\"Pb\": 1.0}, \"7\": {\"Pb\": 1.0}, \"8\": {\"Zr\": 1.0}, \"9\": {\"Zr\": 1.0}, \"10\": {\"Zr\": 1.0}, \"11\": {\"Zr\": 1.0}, \"12\": {\"Zr\": 1.0}, \"13\": {\"Zr\": 1.0}, \"14\": {\"Zr\": 1.0}, \"15\": {\"Zr\": 1.0}, \"16\": {\"O\": 1.0}, \"17\": {\"O\": 1.0}, \"18\": {\"O\": 1.0}, \"19\": {\"O\": 1.0}, \"20\": {\"O\": 1.0}, \"21\": {\"O\": 1.0}, \"22\": {\"O\": 1.0}, \"23\": {\"O\": 1.0}, \"24\": {\"O\": 1.0}, \"25\": {\"O\": 1.0}, \"26\": {\"O\": 1.0}, \"27\": {\"O\": 1.0}, \"28\": {\"O\": 1.0}, \"29\": {\"O\": 1.0}, \"30\": {\"O\": 1.0}, \"31\": {\"O\": 1.0}, \"32\": {\"O\": 1.0}, \"33\": {\"O\": 1.0}, \"34\": {\"O\": 1.0}, \"35\": {\"O\": 1.0}, \"36\": {\"O\": 1.0}, \"37\": {\"O\": 1.0}, \"38\": {\"O\": 1.0}, \"39\": {\"O\": 1.0}}" neb_image=3 energy=-39205.77323522382 polarization_c_per_m2="_JSON [0.022084017447579273, -0.04212722486785974, -0.025274575370931977]" pbc="T T T"
Pb       1.19639110       1.38828441      -0.06585700        0       2.00000000       2.00000000       0.00023492       0.00106157       0.02035185
Pb       4.71158627      10.23626100       0.02284468        0       2.00000000       2.00000000      -0.00166964       0.01620426       0.01344264
Pb       1.78157622       7.28476272       0.02700368        0       2.00000000       2.00000000      -0.00479862       0.00896185       0.00552604
Pb       4.12222216       4.36682112      -0.06557030        0       2.00000000       2.00000000      -0.00146093       0.01568769       0.01538650
Pb       1.20386979       1.47050362       4.04229249        4       2.00000000       2.00000000       0.00710772       0.01547697       0.02773806
Pb       4.62497891      10.21458300       4.08696893        4       2.00000000       2.00000000       0.00453026       0.00949625       0.00850556
Pb       1.75340517       7.34202158       4.08604951        4       2.00000000       2.00000000      -0.00960699       0.00832591       0.01007751
Pb       4.20098995       4.31021452       4.05573143        4       2.00000000       2.00000000      -0.00121554       0.01467246       0.01053412
Zr       4.35567001       1.44617862       2.02431557        8       4.00000000       4.00000000       0.00269514       0.00371581       0.00518251
Zr       1.50929147      10.27533888       6.12845887        8       4.00000000       4.00000000       0.00164084       0.00294683       0.00340245
Zr       1.51558535      10.28628965       2.04814887        8       4.00000000       4.00000000       0.00109221       0.00224385       0.00199734
Zr       4.35313453       1.43591646       6.13123605        8       4.00000000       4.00000000       0.00222497       0.00457488       0.00363537
Zr       4.47248097       7.32460243       6.14110936        8       4.00000000       4.00000000      -0.00301364       0.00477489       0.00131950
Zr       1.43840003       4.39678903       2.03835068        8       4.00000000       4.00000000      -0.00073244       0.00088572       0.00200374
Zr       1.43623885       4.40237783       6.12172678        8       4.00000000       4.00000000      -0.00094897       0.00330254       0.00363514
Zr       4.47797347       7.31679379       2.03832059        8       4.00000000       4.00000000      -0.00381320       0.00329006       0.00210100
O        4.50192693       1.86883576      -0.00247177       16      -2.00000000      -2.00000000       0.01639580       0.00555052      -0.00009386
O        1.28234066       9.95028954       0.00378677       16      -2.00000000      -2.00000000       0.00450014      -0.01071228      -0.00136183
O        4.26963117       7.74245305       0.00352449       16      -2.00000000      -2.00000000      -0.00375788       0.00044856      -0.00071383
O        1.64481436       4.04960150      -0.00091595       16      -2.00000000      -2.00000000      -0.00996858      -0.00889056      -0.00098230
O        4.67373966       1.13002914       4.09130959       20      -2.00000000      -2.00000000       0.00579992      -0.01771176      -0.00151536
O        1.13957011      10.65682593       4.09096558       20      -2.00000000      -2.00000000       0.00373295       0.00485686      -0.00193893
O        4.13388561       7.02945221       4.09054659       20      -2.00000000      -2.00000000      -0.00954104      -0.01312390      -0.00145743
O        1.77647401       4.79152018       4.09189743       20      -2.00000000      -2.00000000       0.00140345       0.00333583      -0.00154395
O        3.08549370       3.05319621       2.33334616       24      -2.00000000      -2.00000000       0.00997438       0.00575826      -0.00610623
O        2.77343142       8.71856450       5.88153974       24      -2.00000000      -2.00000000      -0.00030123      -0.00206679      -0.00813948
O        2.73618204       8.68022565       2.29207372       24      -2.00000000      -2.00000000      -0.00783765      -0.00748440      -0.00300645
O        3.18059896       3.13448726       5.90491846       24      -2.00000000      -2.00000000      -0.00853904      -0.00819497      -0.01090188
O        5.66952003       8.98009077       5.90344758       24      -2.00000000      -2.00000000       0.00800163      -0.00772504      -0.01484164
O        0.10868772       2.88439759       2.33646346       24      -2.00000000      -2.00000000       0.01613198      -0.01653527       0.00324334
O        0.20516795       2.79397896       5.89426956       24      -2.00000000      -2.00000000      -0.00296396       0.00271479      -0.02283835
O        5.63310383       9.01791467       2.26728283       24      -2.00000000      -2.00000000      -0.00060540      -0.00278377       0.00148948
O        2.96904364       5.88448051       1.67309426       32      -2.00000000      -2.00000000      -0.00072713      -0.00577678      -0.01415183
O        2.92433496       5.92243938       6.51878370       32      -2.00000000      -2.00000000      -0.00280467      -0.00335479       0.00227626
O       -0.03317846       0.00504428       6.52551612       32      -2.00000000      -2.00000000       0.00580349      -0.00055651       0.00067541
O        0.03136244       0.06191726       1.67970968       32      -2.00000000      -2.00000000      -0.01045403      -0.01639320      -0.02143492
O        2.92992846      -0.00599890       1.89636778       36      -2.00000000      -2.00000000       0.00051036       0.00168118      -0.02155209
O        2.84334085       0.07405656       6.30322509       36      -2.00000000      -2.00000000       0.01154593      -0.00649330       0.00047964
O        0.00682604       5.86887291       6.31460991       36      -2.00000000      -2.00000000      -0.00820972      -0.00370289      -0.00456985
O        0.08235038       5.94521283       1.88518888       36      -2.00000000      -2.00000000      -0.01035577      -0.00846133      -0.00585321
40