40
Lattice="5.871972 0.0 0.0 0.0 11.774171 0.0 0.0 0.0 8.178836" Properties=species:S:1:pos:R:3:spacegroup_kinds:I:1:field_charges:R:1:initial_charges:R:1:forces:R:3 spacegroup="P b a m" unit_cell=conventional occupancy="_JSON {\"0\": {\"Pb\": 1.0}, \"1\": {\"Pb\": 1.0}, \"2\": {\"Pb\": 1.0}, \"3\": {\"Pb\": 1.0}, \"4\": {\"Pb\": 1.0}, \"5\": {\"Pb\": 1.0}, \"6\": {\"Pb\": 1.0}, \"7\": {\"Pb\": 1.0}, \"8\": {\"Zr\": 1.0}, \"9\": {\"Zr\": 1.0}, \"10\": {\"Zr\": 1.0}, \"11\": {\"Zr\": 1.0}, \"12\": {\"Zr\": 1.0}, \"13\": {\"Zr\": 1.0}, \"14\": {\"Zr\": 1.0}, \"15\": {\"Zr\": 1.0}, \"16\": {\"O\": 1.0}, \"17\": {\"O\": 1.0}, \"18\": {\"O\": 1.0}, \"19\": {\"O\": 1.0}, \"20\": {\"O\": 1.0}, \"21\": {\"O\": 1.0}, \"22\": {\"O\": 1.0}, \"23\": {\"O\": 1.0}, \"24\": {\"O\": 1.0}, \"25\": {\"O\": 1.0}, \"26\": {\"O\": 1.0}, \"27\": {\"O\": 1.0}, \"28\": {\"O\": 1.0}, \"29\": {\"O\": 1.0}, \"30\": {\"O\": 1.0}, \"31\": {\"O\": 1.0}, \"32\": {\"O\": 1.0}, \"33\": {\"O\": 1.0}, \"34\": {\"O\": 1.0}, \"35\": {\"O\": 1.0}, \"36\": {\"O\": 1.0}, \"37\": {\"O\": 1.0}, \"38\": {\"O\": 1.0}, \"39\": {\"O\": 1.0}}" neb_image=0 energy=-39205.764739708866 polarization_c_per_m2="_JSON [-0.0012611573750599988, 0.0349032942069816, -1.3526432333244794e-15]" pbc="T T T"
Pb       1.17373646       1.45287285      -0.00000000        0       2.00000000       2.00000000       0.01811033      -0.02203254      -0.00000000
Pb       4.69823554      10.32129815      -0.00000000        0       2.00000000       2.00000000       0.02886545      -0.02506414      -0.00000000
Pb       1.76224954       7.33995835      -0.00000000        0       2.00000000       2.00000000       0.02886545      -0.02203254      -0.00000000
Pb       4.10972246       4.43421265      -0.00000000        0       2.00000000       2.00000000       0.01811033      -0.02506414      -0.00000000
Pb       1.22777814       1.51267559       4.08941800        4       2.00000000       2.00000000       0.01833476      -0.01928032       0.00000000
Pb       4.64419386      10.26149541       4.08941800        4       2.00000000       2.00000000       0.02864101      -0.02781637       0.00000000
Pb       1.70820786       7.39976109       4.08941800        4       2.00000000       2.00000000       0.02864101      -0.01928032       0.00000000
Pb       4.16376414       4.37440991       4.08941800        4       2.00000000       2.00000000       0.01833476      -0.02781637       0.00000000
Zr       4.35630128       1.46381254       2.04209901        8       4.00000000       4.00000000       0.04074979      -0.05115421       0.00128299
Zr       1.51567072      10.31035846       6.13673699        8       4.00000000       4.00000000       0.05320176      -0.04303916      -0.00128299
Zr       1.51567072      10.31035846       2.04209901        8       4.00000000       4.00000000       0.05320176      -0.04303916       0.00128299
Zr       4.35630128       1.46381254       6.13673699        8       4.00000000       4.00000000       0.04074979      -0.05115421      -0.00128299
Zr       4.45165672       7.35089804       6.13673699        8       4.00000000       4.00000000       0.05320176      -0.05115421      -0.00128299
Zr       1.42031528       4.42327296       2.04209901        8       4.00000000       4.00000000       0.04074979      -0.04303916       0.00128299
Zr       1.42031528       4.42327296       6.13673699        8       4.00000000       4.00000000       0.04074979      -0.04303916      -0.00128299
Zr       4.45165672       7.35089804       2.04209901        8       4.00000000       4.00000000       0.05320176      -0.05115421       0.00128299
O        4.55672239       1.85661981      -0.00000000       16      -2.00000000      -2.00000000      -0.01967453       0.01834648       0.00000000
O        1.31524961       9.91755119      -0.00000000       16      -2.00000000      -2.00000000      -0.02730124       0.02875020       0.00000000
O        4.25123561       7.74370531      -0.00000000       16      -2.00000000      -2.00000000      -0.02730124       0.01834648       0.00000000
O        1.62073639       4.03046569      -0.00000000       16      -2.00000000      -2.00000000      -0.01967453       0.02875020       0.00000000
O        4.70256932       1.10550087       4.08941800       20      -2.00000000      -2.00000000      -0.01760133       0.03098644      -0.00000000
O        1.16940268      10.66867013       4.08941800       20      -2.00000000      -2.00000000      -0.02937445       0.01611025      -0.00000000
O        4.10538868       6.99258637       4.08941800       20      -2.00000000      -2.00000000      -0.02937445       0.03098644      -0.00000000
O        1.76658332       4.78158463       4.08941800       20      -2.00000000      -2.00000000      -0.01760133       0.01611025      -0.00000000
O        3.12999853       3.08379167       2.30409508       24      -2.00000000      -2.00000000      -0.03345472       0.03894801      -0.00556508
O        2.74197347       8.69037933       5.87474092       24      -2.00000000      -2.00000000      -0.01352106       0.00814867       0.00556508
O        2.74197347       8.69037933       2.30409508       24      -2.00000000      -2.00000000      -0.01352106       0.00814867      -0.00556508
O        3.12999853       3.08379167       5.87474092       24      -2.00000000      -2.00000000      -0.03345472       0.03894801       0.00556508
O        5.67795947       8.97087717       5.87474092       24      -2.00000000      -2.00000000      -0.01352106       0.03894801       0.00556508
O        0.19401253       2.80329383       2.30409508       24      -2.00000000      -2.00000000      -0.03345472       0.00814867      -0.00556508
O        0.19401253       2.80329383       5.87474092       24      -2.00000000      -2.00000000      -0.03345472       0.00814867       0.00556508
O        5.67795947       8.97087717       2.30409508       24      -2.00000000      -2.00000000      -0.01352106       0.03894801      -0.00556508
O        2.93598600       5.88708550       1.65175084       32      -2.00000000      -2.00000000      -0.02348789       0.02354834       0.00096873
O        2.93598600       5.88708550       6.52708516       32      -2.00000000      -2.00000000      -0.02348789       0.02354834      -0.00096873
O        0.00000000       0.00000000       6.52708516       32      -2.00000000      -2.00000000      -0.02348789       0.02354834      -0.00096873
O       -0.00000000       0.00000000       1.65175084       32      -2.00000000      -2.00000000      -0.02348789       0.02354834       0.00096873
O        2.93598600       0.00000000       1.87160782       36      -2.00000000      -2.00000000      -0.02348789       0.02354834       0.00119428
O        2.93598600       0.00000000       6.30722818       36      -2.00000000      -2.00000000      -0.02348789       0.02354834      -0.00119428
O        0.00000000       5.88708550       6.30722818       36      -2.00000000      -2.00000000      -0.02348789       0.02354834      -0.00119428
O        0.00000000       5.88708550       1.87160782       36      -2.00000000      -2.00000000      -0.02348789       0.02354834       0.00119428
40
Lattice="5.86948729354657 0.0 0.0 -0.004772411725016875 11.765899539709807 0.0 -6.336635063017552e-05 -3.483137469633444e-07 8.171533666168736" Properties=species:S:1:pos:R:3:spacegroup_kinds:I:1:field_charges:R:1:initial_charges:R:1:forces:R:3 spacegroup="P b a m" unit_cell=conventional occupancy="_JSON {\"0\": {\"Pb\": 1.0}, \"1\": {\"Pb\": 1.0}, \"2\": {\"Pb\": 1.0}, \"3\": {\"Pb\": 1.0}, \"4\": {\"Pb\": 1.0}, \"5\": {\"Pb\": 1.0}, \"6\": {\"Pb\": 1.0}, \"7\": {\"Pb\": 1.0}, \"8\": {\"Zr\": 1.0}, \"9\": {\"Zr\": 1.0}, \"10\": {\"Zr\": 1.0}, \"11\": {\"Zr\": 1.0}, \"12\": {\"Zr\": 1.0}, \"13\": {\"Zr\": 1.0}, \"14\": {\"Zr\": 1.0}, \"15\": {\"Zr\": 1.0}, \"16\": {\"O\": 1.0}, \"17\": {\"O\": 1.0}, \"18\": {\"O\": 1.0}, \"19\": {\"O\": 1.0}, \"20\": {\"O\": 1.0}, \"21\": {\"O\": 1.0}, \"22\": {\"O\": 1.0}, \"23\": {\"O\": 1.0}, \"24\": {\"O\": 1.0}, \"25\": {\"O\": 1.0}, \"26\": {\"O\": 1.0}, \"27\": {\"O\": 1.0}, \"28\": {\"O\": 1.0}, \"29\": {\"O\": 1.0}, \"30\": {\"O\": 1.0}, \"31\": {\"O\": 1.0}, \"32\": {\"O\": 1.0}, \"33\": {\"O\": 1.0}, \"34\": {\"O\": 1.0}, \"35\": {\"O\": 1.0}, \"36\": {\"O\": 1.0}, \"37\": {\"O\": 1.0}, \"38\": {\"O\": 1.0}, \"39\": {\"O\": 1.0}}" neb_image=1 energy=-39205.782017119505 polarization_c_per_m2="_JSON [0.02025071222834388, -0.007179178886210578, 8.244524586402884e-05]" pbc="T T T"
Pb       1.19179170       1.41329936       0.00063553        0       2.00000000       2.00000000       0.00419376      -0.00850191      -0.00008380
Pb       4.70482370      10.27849050      -0.00054171        0       2.00000000       2.00000000       0.00279637      -0.00786704       0.00001951
Pb       1.76975178       7.30668953      -0.00052082        0       2.00000000       2.00000000       0.00248698      -0.00617792       0.00002065
Pb       4.11709761       4.39869116       0.00069498        0       2.00000000       2.00000000       0.00238740      -0.00714451      -0.00009256
Pb       1.22258474       1.49259650       4.08604377        4       2.00000000       2.00000000      -0.00093561      -0.00419414      -0.00006492
Pb       4.63381013      10.23398556       4.08563405        4       2.00000000       2.00000000      -0.00095723      -0.00447033      -0.00001089
Pb       1.72853958       7.36603733       4.08563166        4       2.00000000       2.00000000       0.00530552      -0.00629410      -0.00001652
Pb       4.18551619       4.34266850       4.08602116        4       2.00000000       2.00000000       0.00555802      -0.00634133      -0.00005021
Zr       4.35577117       1.45172141       2.03689651        8       4.00000000       4.00000000       0.00041522      -0.00242180      -0.00077933
Zr       1.51435388      10.29150187       6.12762127        8       4.00000000       4.00000000       0.00074601      -0.00258318      -0.00079720
Zr       1.51427570      10.29136600       2.04383327        8       4.00000000       4.00000000       0.00075853      -0.00256798       0.00079148
Zr       4.35582614       1.45186552       6.13479219        8       4.00000000       4.00000000       0.00041116      -0.00243551       0.00074791
Zr       4.45929074       7.33200588       6.13417183        8       4.00000000       4.00000000       0.00275095      -0.00300456       0.00064775
Zr       1.42807627       4.40712751       2.04328307        8       4.00000000       4.00000000       0.00225236      -0.00288171       0.00063437
Zr       1.42814459       4.40699936       6.12839358        8       4.00000000       4.00000000       0.00224734      -0.00287750      -0.00066015
Zr       4.45921286       7.33214452       2.03727197        8       4.00000000       4.00000000       0.00276255      -0.00301330      -0.00065051
O        4.53361088       1.87317719       0.00003161       16      -2.00000000      -2.00000000      -0.00453589       0.00390236      -0.00000275
O        1.29457076       9.93167188      -0.00003105       16      -2.00000000      -2.00000000      -0.00355561       0.00465634       0.00000486
O        4.25039949       7.74401505      -0.00003387       16      -2.00000000      -2.00000000       0.00094271       0.00125569       0.00000469
O        1.62327467       4.03702964       0.00002764       16      -2.00000000      -2.00000000       0.00110368       0.00208217      -0.00000011
O        4.68358268       1.11455538       4.08574895       20      -2.00000000      -2.00000000      -0.00364897       0.00216408       0.00000375
O        1.14938328      10.66897368       4.08576867       20      -2.00000000      -2.00000000      -0.00334623       0.00167722       0.00000375
O        4.10826230       7.00353877       4.08576757       20      -2.00000000      -2.00000000       0.00167108       0.00354394       0.00000325
O        1.76970463       4.78874424       4.08574449       20      -2.00000000      -2.00000000       0.00128960       0.00232217       0.00000553
O        3.13275058       3.09528990       2.29782737       24      -2.00000000      -2.00000000       0.00097916       0.00282372      -0.00079540
O        2.74568178       8.69543230       5.86940826       24      -2.00000000      -2.00000000       0.00192452       0.00252636      -0.00000186
O        2.74641641       8.69613392       2.30242264       24      -2.00000000      -2.00000000       0.00190422       0.00249897       0.00001354
O        3.13178125       3.09440171       5.87314341       24      -2.00000000      -2.00000000       0.00111109       0.00293519       0.00088685
O        5.66008832       8.98178768       5.88290565       24      -2.00000000      -2.00000000      -0.00253742       0.00373056       0.00294446
O        0.17701949       2.81567819       2.31220217       24      -2.00000000      -2.00000000      -0.00367530       0.00336545       0.00232566
O        0.17605965       2.81657751       5.85885438       24      -2.00000000      -2.00000000      -0.00354328       0.00324018      -0.00225160
O        5.66082444       8.98109116       2.28898114       24      -2.00000000      -2.00000000      -0.00255925       0.00376232      -0.00294122
O        2.92567909       5.90279926       1.65379291       32      -2.00000000      -2.00000000      -0.00129564       0.00424676       0.00080306
O        2.92636550       5.90222898       6.51771930       32      -2.00000000      -2.00000000      -0.00134890       0.00428745      -0.00077618
O       -0.00701113       0.01303961       6.52016534       32      -2.00000000      -2.00000000      -0.00162860       0.00280534      -0.00023220
O       -0.00771331       0.01245019       1.65127686       32      -2.00000000      -2.00000000      -0.00154724       0.00287517       0.00027461
O        2.90009848       0.02672757       1.86860101       36      -2.00000000      -2.00000000      -0.00743415       0.00569699      -0.00025267
O        2.90117313       0.02571178       6.30292067       36      -2.00000000      -2.00000000      -0.00753893       0.00578843       0.00028162
O        0.00703571       5.88448697       6.30119009       36      -2.00000000      -2.00000000       0.00199874       0.00024908      -0.00007276
O        0.00594914       5.88345307       1.87024113       36      -2.00000000      -2.00000000       0.00209131       0.00034088       0.00011556
40
Lattice="5.871009234498398 0.0 0.0 -0.009100625880645889 11.765222747165684 0.0 0.002835541623843639 2.6042622147750922e-05 8.172849619837994" Properties=species:S:1:pos:R:3:spacegroup_kinds:I:1:field_charges:R:1:initial_charges:R:1:forces:R:3 spacegroup="P b a m" unit_cell=conventional occupancy="_JSON {\"0\": {\"Pb\": 1.0}, \"1\": {\"Pb\": 1.0}, \"2\": {\"Pb\": 1.0}, \"3\": {\"Pb\": 1.0}, \"4\": {\"Pb\": 1.0}, \"5\": {\"Pb\": 1.0}, \"6\": {\"Pb\": 1.0}, \"7\": {\"Pb\": 1.0}, \"8\": {\"Zr\": 1.0}, \"9\": {\"Zr\": 1.0}, \"10\": {\"Zr\": 1.0}, \"11\": {\"Zr\": 1.0}, \"12\": {\"Zr\": 1.0}, \"13\": {\"Zr\": 1.0}, \"14\": {\"Zr\": 1.0}, \"15\": {\"Zr\": 1.0}, \"16\": {\"O\": 1.0}, \"17\": {\"O\": 1.0}, \"18\": {\"O\": 1.0}, \"19\": {\"O\": 1.0}, \"20\": {\"O\": 1.0}, \"21\": {\"O\": 1.0}, \"22\": {\"O\": 1.0}, \"23\": {\"O\": 1.0}, \"24\": {\"O\": 1.0}, \"25\": {\"O\": 1.0}, \"26\": {\"O\": 1.0}, \"27\": {\"O\": 1.0}, \"28\": {\"O\": 1.0}, \"29\": {\"O\": 1.0}, \"30\": {\"O\": 1.0}, \"31\": {\"O\": 1.0}, \"32\": {\"O\": 1.0}, \"33\": {\"O\": 1.0}, \"34\": {\"O\": 1.0}, \"35\": {\"O\": 1.0}, \"36\": {\"O\": 1.0}, \"37\": {\"O\": 1.0}, \"38\": {\"O\": 1.0}, \"39\": {\"O\": 1.0}}" neb_image=2 energy=-39205.78148600078 polarization_c_per_m2="_JSON [0.023029758449268297, -0.026382418440861203, -0.008327664850417046]" pbc="T T T"
Pb       1.19726591       1.39293364      -0.03004658        0       2.00000000       2.00000000       0.00124570       0.00117540       0.00659091
Pb       4.70368071      10.25753664       0.01840685        0       2.00000000       2.00000000      -0.00062330       0.00508371       0.00240280
Pb       1.77314067       7.29622545       0.01802751        0       2.00000000       2.00000000      -0.00222573       0.00157211       0.00160302
Pb       4.11730581       4.38287919      -0.03305804        0       2.00000000       2.00000000       0.00025820       0.00449495       0.00646273
Pb       1.21261429       1.48387473       4.06934534        4       2.00000000       2.00000000       0.00310728       0.00311106       0.00712657
Pb       4.62495766      10.22465967       4.08880744        4       2.00000000       2.00000000       0.00141125       0.00259999       0.00259589
Pb       1.73848274       7.35229377       4.08810090        4       2.00000000       2.00000000      -0.00274321       0.00257704       0.00369224
Pb       4.19494324       4.32682552       4.07207865        4       2.00000000       2.00000000      -0.00070815       0.00384149       0.00445661
Zr       4.35528919       1.44968413       2.03086635        8       4.00000000       4.00000000       0.00101023       0.00106127       0.00168033
Zr       1.50783975      10.28294167       6.12749082        8       4.00000000       4.00000000       0.00098013       0.00120303       0.00100906
Zr       1.51133729      10.28896834       2.04687389        8       4.00000000       4.00000000       0.00028788       0.00027175       0.00041324
Zr       4.35363215       1.44362826       6.13310367        8       4.00000000       4.00000000       0.00109956       0.00178869       0.00120309
Zr       4.46311881       7.32902670       6.13728651        8       4.00000000       4.00000000      -0.00093963       0.00135097       0.00054151
Zr       1.43302184       4.40082159       2.04106211        8       4.00000000       4.00000000      -0.00048848       0.00030652       0.00086120
Zr       1.43081706       4.40512673       6.12405497        8       4.00000000       4.00000000      -0.00051962       0.00082776       0.00144737
Zr       4.46650343       7.32377947       2.03781729        8       4.00000000       4.00000000      -0.00145816       0.00121265       0.00071051
O        4.51914821       1.87486937      -0.00130277       16      -2.00000000      -2.00000000       0.00334297       0.00118937       0.00009416
O        1.28331748       9.94095786       0.00158360       16      -2.00000000      -2.00000000       0.00181339      -0.00292866      -0.00045163
O        4.25859077       7.74368755       0.00164796       16      -2.00000000      -2.00000000      -0.00177634       0.00044693      -0.00026019
O        1.63142502       4.04212678      -0.00081943       16      -2.00000000      -2.00000000      -0.00255016      -0.00242530      -0.00019848
O        4.67613591       1.11627509       4.08745502       20      -2.00000000      -2.00000000       0.00190677      -0.00355879      -0.00046189
O        1.14051326      10.66449061       4.08689057       20      -2.00000000      -2.00000000       0.00150316       0.00178228      -0.00058438
O        4.11712161       7.01693135       4.08685101       20      -2.00000000      -2.00000000      -0.00238992      -0.00443318      -0.00045792
O        1.77396467       4.79295849       4.08783002       20      -2.00000000      -2.00000000      -0.00049377       0.00071708      -0.00059352
O        3.10855569       3.07455205       2.31495866       24      -2.00000000      -2.00000000       0.00436865       0.00306343      -0.00269983
O        2.75917357       8.71026097       5.87283736       24      -2.00000000      -2.00000000       0.00085985       0.00018652      -0.00372902
O        2.73446443       8.68594042       2.29298038       24      -2.00000000      -2.00000000      -0.00170255      -0.00167582       0.00001819
O        3.15545175       3.11584816       5.88695259       24      -2.00000000      -2.00000000      -0.00458661      -0.00387507      -0.00428092
O        5.66349931       8.97988345       5.88849363       24      -2.00000000      -2.00000000       0.00303210      -0.00255294      -0.00439579
O        0.14092668       2.85110089       2.33018592       24      -2.00000000      -2.00000000       0.00651230      -0.00659217      -0.00139061
O        0.18751338       2.80760665       5.86670665       24      -2.00000000      -2.00000000      -0.00274657       0.00221873      -0.00518651
O        5.63856173       9.00456793       2.27454366       24      -2.00000000      -2.00000000       0.00063372      -0.00171507       0.00084648
O        2.94769127       5.89260286       1.66012292       32      -2.00000000      -2.00000000      -0.00177768      -0.00055366      -0.00413967
O        2.92086934       5.91490610       6.51703313       32      -2.00000000      -2.00000000      -0.00100864      -0.00086188       0.00010719
O       -0.02076925       0.00955273       6.52170678       32      -2.00000000      -2.00000000       0.00234546       0.00016535      -0.00012267
O        0.01041575       0.03642546       1.65972800       32      -2.00000000      -2.00000000      -0.00330632      -0.00512435      -0.00525166
O        2.91284345       0.01157448       1.87318219       36      -2.00000000      -2.00000000      -0.00088037       0.00152447      -0.00525944
O        2.86755164       0.05386352       6.30401340       36      -2.00000000      -2.00000000       0.00455004      -0.00263653       0.00017678
O        0.00242367       5.87469834       6.30422002       36      -2.00000000      -2.00000000      -0.00221126      -0.00060029      -0.00093645
O        0.04638371       5.91753906       1.87757466       36      -2.00000000      -2.00000000      -0.00513216      -0.00423888      -0.00363933
40
Lattice="5.87532834269979 0.0 0.0 -0.01012449703446425 11.76274320952008 0.0 0.004878704199403363 0.0006206605627339862 8.178906287234026" Properties=species:S:1:pos:R:3:spacegroup_kinds:I:1:field_charges:R:1:initial_charges:R:1:forces:R:3 spacegroup="P b a m" unit_cell=conventional occupancy="_JSON {\"0\": {\"Pb\": 1.0}, \"1\": {\"Pb\": 1.0}, \"2\": {\"Pb\": 1.0}, \"3\": {\"Pb\": 1.0}, \"4\": {\"Pb\": 1.0}, \"5\": {\"Pb\": 1.0}, \"6\": {\"Pb\": 1.0}, \"7\": {\"Pb\": 1.0}, \"8\": {\"Zr\": 1.0}, \"9\": {\"Zr\": 1.0}, \"10\": {\"Zr\": 1.0}, \"11\": {\"Zr\": 1.0}, \"12\": {\"Zr\": 1.0}, \"13\": {\"Zr\": 1.0}, \"14\": {\"Zr\": 1.0}, \"15\": {\"Zr\": 1.0}, \"16\": {\"O\": 1.0}, \"17\": {\"O\": 1.0}, \"18\": {\"O\": 1.0}, \"19\": {\"O\": 1.0}, \"20\": {\"O\": 1.0}, \"21\": {\"O\": 1.0}, \"22\": {\"O\": 1.0}, \"23\": {\"O\": 1.0}, \"24\": {\"O\": 1.0}, \"25\": {\"O\": 1.0}, \"26\": {\"O\": 1.0}, \"27\": {\"O\": 1.0}, \"28\": {\"O\": 1.0}, \"29\": {\"O\": 1.0}, \"30\": {\"O\": 1.0}, \"31\": {\"O\": 1.0}, \"32\": {\"O\": 1.0}, \"33\": {\"O\": 1.0}, \"34\": {\"O\": 1.0}, \"35\": {\"O\": 1.0}, \"36\": {\"O\": 1.0}, \"37\": {\"O\": 1.0}, \"38\": {\"O\": 1.0}, \"39\": {\"O\": 1.0}}" neb_image=3 energy=-39205.77051389331 polarization_c_per_m2="_JSON [0.022148088857445108, -0.045596946550891276, -0.0339730596184041]" pbc="T T T"
Pb       1.19265342       1.38606712      -0.06158618        0       2.00000000       2.00000000       0.00385337       0.00024755       0.02156099
Pb       4.70914344      10.22944592       0.00631184        0       2.00000000       2.00000000      -0.00039998       0.01875921       0.01951927
Pb       1.78492265       7.28877193       0.01015918        0       2.00000000       2.00000000      -0.00821253       0.00440407       0.01324164
Pb       4.11891566       4.36247237      -0.06425023        0       2.00000000       2.00000000      -0.00093194       0.01875326       0.02043479
Pb       1.19879156       1.46977216       4.03772886        4       2.00000000       2.00000000       0.00867280       0.01635313       0.03196482
Pb       4.62119254      10.21192472       4.07934428        4       2.00000000       2.00000000       0.00367862       0.01220734       0.01174526
Pb       1.75197062       7.33806934       4.07343263        4       2.00000000       2.00000000      -0.01012146       0.01216528       0.01964855
Pb       4.20153632       4.30655630       4.05357733        4       2.00000000       2.00000000      -0.00197218       0.01555414       0.01413785
Zr       4.35421987       1.44423537       2.02405234        8       4.00000000       4.00000000       0.00342154       0.00415691       0.00551847
Zr       1.50490911      10.27538886       6.12718560        8       4.00000000       4.00000000       0.00177306       0.00317056       0.00417171
Zr       1.51067142      10.28542756       2.04638582        8       4.00000000       4.00000000       0.00147080       0.00189204       0.00306503
Zr       4.35322248       1.43516872       6.13200627        8       4.00000000       4.00000000       0.00261028       0.00553964       0.00455835
Zr       4.47169319       7.32174935       6.13894969        8       4.00000000       4.00000000      -0.00341343       0.00593353       0.00306801
Zr       1.43655039       4.39893421       2.03832780        8       4.00000000       4.00000000      -0.00111051       0.00029714       0.00309935
Zr       1.43546712       4.40086787       6.12164247        8       4.00000000       4.00000000      -0.00118292       0.00365034       0.00460558
Zr       4.47657263       7.31690276       2.03617654        8       4.00000000       4.00000000      -0.00420691       0.00364324       0.00334305
O        4.50700937       1.86860145      -0.00172057       16      -2.00000000      -2.00000000       0.01282050       0.00599336      -0.00038256
O        1.27456622       9.95310551       0.00383609       16      -2.00000000      -2.00000000       0.00735091      -0.01212067      -0.00168070
O        4.26982079       7.73999674       0.00295710       16      -2.00000000      -2.00000000      -0.00532460       0.00338663      -0.00070725
O        1.64381494       4.05262882       0.00014697       16      -2.00000000      -2.00000000      -0.01041577      -0.01097274      -0.00149165
O        4.67124693       1.13128467       4.09265498       20      -2.00000000      -2.00000000       0.00749013      -0.01997733      -0.00205309
O        1.13415135      10.65167748       4.09273472       20      -2.00000000      -2.00000000       0.00313173       0.00711314      -0.00250290
O        4.13151890       7.03930065       4.09207232       20      -2.00000000      -2.00000000      -0.00972192      -0.02016651      -0.00199508
O        1.77801908       4.79081187       4.09366073       20      -2.00000000      -2.00000000       0.00052427       0.00573163      -0.00236679
O        3.08731471       3.05637951       2.33181091       24      -2.00000000      -2.00000000       0.01014188       0.00570958      -0.00584570
O        2.75498640       8.70506819       5.89787347       24      -2.00000000      -2.00000000       0.00346671       0.00131864      -0.01779493
O        2.74145628       8.68911358       2.29201233       24      -2.00000000      -2.00000000      -0.01061764      -0.01095775      -0.00070088
O        3.17841988       3.13163678       5.90990294       24      -2.00000000      -2.00000000      -0.01117882      -0.00974756      -0.01570319
O        5.65117957       8.99319372       5.91630300       24      -2.00000000      -2.00000000       0.01131790      -0.00986680      -0.01840164
O        0.10748577       2.88514197       2.34103567       24      -2.00000000      -2.00000000       0.01681117      -0.01752102       0.00141666
O        0.19953789       2.79944566       5.89330229       24      -2.00000000      -2.00000000      -0.00422710       0.00344298      -0.02539057
O        5.63676290       9.01367518       2.27013026       24      -2.00000000      -2.00000000      -0.00285999      -0.00132543      -0.00010518
O        2.96150004       5.89113966       1.68057139       32      -2.00000000      -2.00000000       0.00241003      -0.00933143      -0.02227085
O        2.93172800       5.91571713       6.52201248       32      -2.00000000      -2.00000000      -0.00462700      -0.00217499       0.00241678
O       -0.02737010       0.01168254       6.52666323       32      -2.00000000      -2.00000000       0.00641895      -0.00031808       0.00083660
O        0.03037823       0.06414333       1.68707761       32      -2.00000000      -2.00000000      -0.01123051      -0.01837202      -0.02669627
O        2.92322880       0.00084288       1.89988782       36      -2.00000000      -2.00000000       0.00168423       0.00017635      -0.02288544
O        2.85250539       0.06389750       6.30796874       36      -2.00000000      -2.00000000       0.01131353      -0.00547313      -0.00125979
O        0.01637033       5.87936697       6.31320914       36      -2.00000000      -2.00000000      -0.00983927      -0.00436513      -0.00332147
O        0.07366441       5.93970152       1.89695246       36      -2.00000000      -2.00000000      -0.00876792      -0.00690912      -0.01479682
40