40
Lattice="5.871972 0.0 0.0 0.0 11.774171 0.0 0.0 0.0 8.178836" Properties=species:S:1:pos:R:3:spacegroup_kinds:I:1:field_charges:R:1:initial_charges:R:1:forces:R:3 spacegroup="P b a m" unit_cell=conventional occupancy="_JSON {\"0\": {\"Pb\": 1.0}, \"1\": {\"Pb\": 1.0}, \"2\": {\"Pb\": 1.0}, \"3\": {\"Pb\": 1.0}, \"4\": {\"Pb\": 1.0}, \"5\": {\"Pb\": 1.0}, \"6\": {\"Pb\": 1.0}, \"7\": {\"Pb\": 1.0}, \"8\": {\"Zr\": 1.0}, \"9\": {\"Zr\": 1.0}, \"10\": {\"Zr\": 1.0}, \"11\": {\"Zr\": 1.0}, \"12\": {\"Zr\": 1.0}, \"13\": {\"Zr\": 1.0}, \"14\": {\"Zr\": 1.0}, \"15\": {\"Zr\": 1.0}, \"16\": {\"O\": 1.0}, \"17\": {\"O\": 1.0}, \"18\": {\"O\": 1.0}, \"19\": {\"O\": 1.0}, \"20\": {\"O\": 1.0}, \"21\": {\"O\": 1.0}, \"22\": {\"O\": 1.0}, \"23\": {\"O\": 1.0}, \"24\": {\"O\": 1.0}, \"25\": {\"O\": 1.0}, \"26\": {\"O\": 1.0}, \"27\": {\"O\": 1.0}, \"28\": {\"O\": 1.0}, \"29\": {\"O\": 1.0}, \"30\": {\"O\": 1.0}, \"31\": {\"O\": 1.0}, \"32\": {\"O\": 1.0}, \"33\": {\"O\": 1.0}, \"34\": {\"O\": 1.0}, \"35\": {\"O\": 1.0}, \"36\": {\"O\": 1.0}, \"37\": {\"O\": 1.0}, \"38\": {\"O\": 1.0}, \"39\": {\"O\": 1.0}}" neb_image=0 energy=-39205.764739708866 polarization_c_per_m2="_JSON [-0.0012611573750599988, 0.0349032942069816, -1.3526432333244794e-15]" pbc="T T T"
Pb       1.17373646       1.45287285      -0.00000000        0       2.00000000       2.00000000       0.01811033      -0.02203254      -0.00000000
Pb       4.69823554      10.32129815      -0.00000000        0       2.00000000       2.00000000       0.02886545      -0.02506414      -0.00000000
Pb       1.76224954       7.33995835      -0.00000000        0       2.00000000       2.00000000       0.02886545      -0.02203254      -0.00000000
Pb       4.10972246       4.43421265      -0.00000000        0       2.00000000       2.00000000       0.01811033      -0.02506414      -0.00000000
Pb       1.22777814       1.51267559       4.08941800        4       2.00000000       2.00000000       0.01833476      -0.01928032       0.00000000
Pb       4.64419386      10.26149541       4.08941800        4       2.00000000       2.00000000       0.02864101      -0.02781637       0.00000000
Pb       1.70820786       7.39976109       4.08941800        4       2.00000000       2.00000000       0.02864101      -0.01928032       0.00000000
Pb       4.16376414       4.37440991       4.08941800        4       2.00000000       2.00000000       0.01833476      -0.02781637       0.00000000
Zr       4.35630128       1.46381254       2.04209901        8       4.00000000       4.00000000       0.04074979      -0.05115421       0.00128299
Zr       1.51567072      10.31035846       6.13673699        8       4.00000000       4.00000000       0.05320176      -0.04303916      -0.00128299
Zr       1.51567072      10.31035846       2.04209901        8       4.00000000       4.00000000       0.05320176      -0.04303916       0.00128299
Zr       4.35630128       1.46381254       6.13673699        8       4.00000000       4.00000000       0.04074979      -0.05115421      -0.00128299
Zr       4.45165672       7.35089804       6.13673699        8       4.00000000       4.00000000       0.05320176      -0.05115421      -0.00128299
Zr       1.42031528       4.42327296       2.04209901        8       4.00000000       4.00000000       0.04074979      -0.04303916       0.00128299
Zr       1.42031528       4.42327296       6.13673699        8       4.00000000       4.00000000       0.04074979      -0.04303916      -0.00128299
Zr       4.45165672       7.35089804       2.04209901        8       4.00000000       4.00000000       0.05320176      -0.05115421       0.00128299
O        4.55672239       1.85661981      -0.00000000       16      -2.00000000      -2.00000000      -0.01967453       0.01834648       0.00000000
O        1.31524961       9.91755119      -0.00000000       16      -2.00000000      -2.00000000      -0.02730124       0.02875020       0.00000000
O        4.25123561       7.74370531      -0.00000000       16      -2.00000000      -2.00000000      -0.02730124       0.01834648       0.00000000
O        1.62073639       4.03046569      -0.00000000       16      -2.00000000      -2.00000000      -0.01967453       0.02875020       0.00000000
O        4.70256932       1.10550087       4.08941800       20      -2.00000000      -2.00000000      -0.01760133       0.03098644      -0.00000000
O        1.16940268      10.66867013       4.08941800       20      -2.00000000      -2.00000000      -0.02937445       0.01611025      -0.00000000
O        4.10538868       6.99258637       4.08941800       20      -2.00000000      -2.00000000      -0.02937445       0.03098644      -0.00000000
O        1.76658332       4.78158463       4.08941800       20      -2.00000000      -2.00000000      -0.01760133       0.01611025      -0.00000000
O        3.12999853       3.08379167       2.30409508       24      -2.00000000      -2.00000000      -0.03345472       0.03894801      -0.00556508
O        2.74197347       8.69037933       5.87474092       24      -2.00000000      -2.00000000      -0.01352106       0.00814867       0.00556508
O        2.74197347       8.69037933       2.30409508       24      -2.00000000      -2.00000000      -0.01352106       0.00814867      -0.00556508
O        3.12999853       3.08379167       5.87474092       24      -2.00000000      -2.00000000      -0.03345472       0.03894801       0.00556508
O        5.67795947       8.97087717       5.87474092       24      -2.00000000      -2.00000000      -0.01352106       0.03894801       0.00556508
O        0.19401253       2.80329383       2.30409508       24      -2.00000000      -2.00000000      -0.03345472       0.00814867      -0.00556508
O        0.19401253       2.80329383       5.87474092       24      -2.00000000      -2.00000000      -0.03345472       0.00814867       0.00556508
O        5.67795947       8.97087717       2.30409508       24      -2.00000000      -2.00000000      -0.01352106       0.03894801      -0.00556508
O        2.93598600       5.88708550       1.65175084       32      -2.00000000      -2.00000000      -0.02348789       0.02354834       0.00096873
O        2.93598600       5.88708550       6.52708516       32      -2.00000000      -2.00000000      -0.02348789       0.02354834      -0.00096873
O        0.00000000       0.00000000       6.52708516       32      -2.00000000      -2.00000000      -0.02348789       0.02354834      -0.00096873
O       -0.00000000       0.00000000       1.65175084       32      -2.00000000      -2.00000000      -0.02348789       0.02354834       0.00096873
O        2.93598600       0.00000000       1.87160782       36      -2.00000000      -2.00000000      -0.02348789       0.02354834       0.00119428
O        2.93598600       0.00000000       6.30722818       36      -2.00000000      -2.00000000      -0.02348789       0.02354834      -0.00119428
O        0.00000000       5.88708550       6.30722818       36      -2.00000000      -2.00000000      -0.02348789       0.02354834      -0.00119428
O        0.00000000       5.88708550       1.87160782       36      -2.00000000      -2.00000000      -0.02348789       0.02354834       0.00119428
40
Lattice="5.86949305239993 0.0 0.0 -0.004712849139168275 11.765891889526598 0.0 2.356048956192673e-06 8.23435887777969e-08 8.171545732276082" Properties=species:S:1:pos:R:3:spacegroup_kinds:I:1:field_charges:R:1:initial_charges:R:1:forces:R:3 spacegroup="P b a m" unit_cell=conventional occupancy="_JSON {\"0\": {\"Pb\": 1.0}, \"1\": {\"Pb\": 1.0}, \"2\": {\"Pb\": 1.0}, \"3\": {\"Pb\": 1.0}, \"4\": {\"Pb\": 1.0}, \"5\": {\"Pb\": 1.0}, \"6\": {\"Pb\": 1.0}, \"7\": {\"Pb\": 1.0}, \"8\": {\"Zr\": 1.0}, \"9\": {\"Zr\": 1.0}, \"10\": {\"Zr\": 1.0}, \"11\": {\"Zr\": 1.0}, \"12\": {\"Zr\": 1.0}, \"13\": {\"Zr\": 1.0}, \"14\": {\"Zr\": 1.0}, \"15\": {\"Zr\": 1.0}, \"16\": {\"O\": 1.0}, \"17\": {\"O\": 1.0}, \"18\": {\"O\": 1.0}, \"19\": {\"O\": 1.0}, \"20\": {\"O\": 1.0}, \"21\": {\"O\": 1.0}, \"22\": {\"O\": 1.0}, \"23\": {\"O\": 1.0}, \"24\": {\"O\": 1.0}, \"25\": {\"O\": 1.0}, \"26\": {\"O\": 1.0}, \"27\": {\"O\": 1.0}, \"28\": {\"O\": 1.0}, \"29\": {\"O\": 1.0}, \"30\": {\"O\": 1.0}, \"31\": {\"O\": 1.0}, \"32\": {\"O\": 1.0}, \"33\": {\"O\": 1.0}, \"34\": {\"O\": 1.0}, \"35\": {\"O\": 1.0}, \"36\": {\"O\": 1.0}, \"37\": {\"O\": 1.0}, \"38\": {\"O\": 1.0}, \"39\": {\"O\": 1.0}}" neb_image=1 energy=-39205.78198630731 polarization_c_per_m2="_JSON [0.02017447784670693, -0.006971223471692782, 2.0612183769245526e-06]" pbc="T T T"
Pb       1.19170021       1.41347022      -0.00002011        0       2.00000000       2.00000000       0.00428603      -0.00864858       0.00000087
Pb       4.70486725      10.27857357       0.00002441        0       2.00000000       2.00000000       0.00286717      -0.00799102      -0.00000459
Pb       1.76980465       7.30690820       0.00002367        0       2.00000000       2.00000000       0.00253156      -0.00629353      -0.00000418
Pb       4.11710825       4.39897081      -0.00002184        0       2.00000000       2.00000000       0.00245207      -0.00725380       0.00000074
Pb       1.22263517       1.49273376       4.08576817        4       2.00000000       2.00000000      -0.00090959      -0.00426182      -0.00000208
Pb       4.63392717      10.23416147       4.08578159        4       2.00000000       2.00000000      -0.00094737      -0.00454384      -0.00000222
Pb       1.72843613       7.36612361       4.08578204        4       2.00000000       2.00000000       0.00539439      -0.00640781      -0.00000222
Pb       4.18539754       4.34271940       4.08576778        4       2.00000000       2.00000000       0.00566564      -0.00644738      -0.00000123
Zr       4.35585533       1.45182141       2.03682775        8       4.00000000       4.00000000       0.00044157      -0.00247351      -0.00077753
Zr       1.51441087      10.29146058       6.12768816        8       4.00000000       4.00000000       0.00078826      -0.00262597      -0.00080805
Zr       1.51441341      10.29146556       2.04386232        8       4.00000000       4.00000000       0.00078786      -0.00262655       0.00080667
Zr       4.35585236       1.45181607       6.13471469        8       4.00000000       4.00000000       0.00044244      -0.00247273       0.00077652
Zr       4.45928446       7.33214351       6.13419993        8       4.00000000       4.00000000       0.00280858      -0.00306644       0.00066122
Zr       1.42813248       4.40711930       2.04319246        8       4.00000000       4.00000000       0.00229571      -0.00294069       0.00065766
Zr       1.42812900       4.40712512       6.12835002        8       4.00000000       4.00000000       0.00229658      -0.00294185      -0.00065800
Zr       4.45928735       7.33213785       2.03735078        8       4.00000000       4.00000000       0.00280821      -0.00306546      -0.00066203
O        4.53373310       1.87308640      -0.00000116       16      -2.00000000      -2.00000000      -0.00459048       0.00400226       0.00000004
O        1.29467755       9.93158435       0.00000090       16      -2.00000000      -2.00000000      -0.00361934       0.00473558      -0.00000003
O        4.25040624       7.74400093       0.00000105       16      -2.00000000      -2.00000000       0.00092333       0.00129248       0.00000011
O        1.62323853       4.03698061      -0.00000123       16      -2.00000000      -2.00000000       0.00108938       0.00211095       0.00000027
O        4.68372235       1.11444333       4.08577325       20      -2.00000000      -2.00000000      -0.00370347       0.00220201       0.00000001
O        1.14951759      10.66883064       4.08577216       20      -2.00000000      -2.00000000      -0.00340704       0.00173502       0.00000035
O        4.10823899       7.00359128       4.08577212       20      -2.00000000      -2.00000000       0.00166957       0.00358504       0.00000038
O        1.76970071       4.78881914       4.08577314       20      -2.00000000      -2.00000000       0.00130263       0.00237960       0.00000013
O        3.13210825       3.09461159       2.29827632       24      -2.00000000      -2.00000000       0.00106266       0.00294150      -0.00085680
O        2.74591893       8.69554628       5.86941816       24      -2.00000000      -2.00000000       0.00194022       0.00254949      -0.00002124
O        2.74588396       8.69551372       2.30211017       24      -2.00000000      -2.00000000       0.00194625       0.00255457       0.00002603
O        3.13213655       3.09463934       5.87328461       24      -2.00000000      -2.00000000       0.00106273       0.00294046       0.00085786
O        5.66045368       8.98149884       5.88278061       24      -2.00000000      -2.00000000      -0.00259164       0.00381316       0.00298641
O        0.17650793       2.81620871       2.31248541       24      -2.00000000      -2.00000000      -0.00366412       0.00334515       0.00233890
O        0.17653569       2.81618170       5.85907337       24      -2.00000000      -2.00000000      -0.00366404       0.00334507      -0.00233914
O        5.66041896       8.98153019       2.28874634       24      -2.00000000      -2.00000000      -0.00258551       0.00380763      -0.00298227
O        2.92630713       5.90224481       1.65374787       32      -2.00000000      -2.00000000      -0.00138048       0.00436181       0.00078806
O        2.92627964       5.90226772       6.51779469       32      -2.00000000      -2.00000000      -0.00137692       0.00435918      -0.00078687
O       -0.00714227       0.01281592       6.52020287       32      -2.00000000      -2.00000000      -0.00162085       0.00288245      -0.00023959
O       -0.00711682       0.01283675       1.65134179       32      -2.00000000      -2.00000000      -0.00162286       0.00288125       0.00024223
O        2.90102644       0.02589809       1.86865234       36      -2.00000000      -2.00000000      -0.00762211       0.00585778      -0.00028790
O        2.90098586       0.02593660       6.30289031       36      -2.00000000      -2.00000000      -0.00761769       0.00585373       0.00028911
O        0.00662921       5.88409938       6.30124699       36      -2.00000000      -2.00000000       0.00203299       0.00026456      -0.00008128
O        0.00667154       5.88413855       1.87029780       36      -2.00000000      -2.00000000       0.00202771       0.00026028       0.00008370
40
Lattice="5.87000076519702 0.0 0.0 -0.007815235570586413 11.765243048951222 0.0 0.0028872705838009893 0.00010756428097895377 8.172355002329953" Properties=species:S:1:pos:R:3:spacegroup_kinds:I:1:field_charges:R:1:initial_charges:R:1:forces:R:3 spacegroup="P b a m" unit_cell=conventional occupancy="_JSON {\"0\": {\"Pb\": 1.0}, \"1\": {\"Pb\": 1.0}, \"2\": {\"Pb\": 1.0}, \"3\": {\"Pb\": 1.0}, \"4\": {\"Pb\": 1.0}, \"5\": {\"Pb\": 1.0}, \"6\": {\"Pb\": 1.0}, \"7\": {\"Pb\": 1.0}, \"8\": {\"Zr\": 1.0}, \"9\": {\"Zr\": 1.0}, \"10\": {\"Zr\": 1.0}, \"11\": {\"Zr\": 1.0}, \"12\": {\"Zr\": 1.0}, \"13\": {\"Zr\": 1.0}, \"14\": {\"Zr\": 1.0}, \"15\": {\"Zr\": 1.0}, \"16\": {\"O\": 1.0}, \"17\": {\"O\": 1.0}, \"18\": {\"O\": 1.0}, \"19\": {\"O\": 1.0}, \"20\": {\"O\": 1.0}, \"21\": {\"O\": 1.0}, \"22\": {\"O\": 1.0}, \"23\": {\"O\": 1.0}, \"24\": {\"O\": 1.0}, \"25\": {\"O\": 1.0}, \"26\": {\"O\": 1.0}, \"27\": {\"O\": 1.0}, \"28\": {\"O\": 1.0}, \"29\": {\"O\": 1.0}, \"30\": {\"O\": 1.0}, \"31\": {\"O\": 1.0}, \"32\": {\"O\": 1.0}, \"33\": {\"O\": 1.0}, \"34\": {\"O\": 1.0}, \"35\": {\"O\": 1.0}, \"36\": {\"O\": 1.0}, \"37\": {\"O\": 1.0}, \"38\": {\"O\": 1.0}, \"39\": {\"O\": 1.0}}" neb_image=2 energy=-39205.781866604404 polarization_c_per_m2="_JSON [0.023201033514426445, -0.021959070422978864, -0.003451901877991488]" pbc="T T T"
Pb       1.19759348       1.39752534      -0.03005975        0       2.00000000       2.00000000       0.00011908       0.00033781       0.00422788
Pb       4.70313047      10.26417709       0.02618913        0       2.00000000       2.00000000      -0.00024227       0.00179192      -0.00138382
Pb       1.77052985       7.29675110       0.02558143        0       2.00000000       2.00000000      -0.00042769       0.00088129      -0.00169310
Pb       4.11796879       4.38532692      -0.03315141        0       2.00000000       2.00000000      -0.00021478       0.00140227       0.00395347
Pb       1.21704023       1.48535282       4.07296382        4       2.00000000       2.00000000       0.00102808       0.00117966       0.00291943
Pb       4.62762287      10.22589871       4.09312878        4       2.00000000       2.00000000       0.00068048       0.00065310       0.00012465
Pb       1.73721818       7.35573560       4.09360371        4       2.00000000       2.00000000      -0.00090558       0.00081204       0.00006146
Pb       4.19402003       4.33212648       4.07421871        4       2.00000000       2.00000000      -0.00009904       0.00135547       0.00212901
Zr       4.35645915       1.45164509       2.03195207        8       4.00000000       4.00000000       0.00014364       0.00020905       0.00081858
Zr       1.50952760      10.28411157       6.12877853        8       4.00000000       4.00000000       0.00054150       0.00061177       0.00015404
Zr       1.51315657      10.29038908       2.04750299        8       4.00000000       4.00000000      -0.00007097      -0.00007444      -0.00010724
Zr       4.35381008       1.44499081       6.13278650        8       4.00000000       4.00000000       0.00053697       0.00080535       0.00061667
Zr       4.46135027       7.33092621       6.13829524        8       4.00000000       4.00000000      -0.00012145       0.00015643      -0.00013045
Zr       1.43315358       4.40043521       2.04116008        8       4.00000000       4.00000000      -0.00029921       0.00040065       0.00046335
Zr       1.42971817       4.40661339       6.12452812        8       4.00000000       4.00000000      -0.00004377       0.00006180       0.00063615
Zr       4.46517020       7.32427355       2.03894856        8       4.00000000       4.00000000      -0.00062649       0.00060386      -0.00005005
O        4.52131042       1.87551346      -0.00161620       16      -2.00000000      -2.00000000       0.00190806       0.00054973       0.00017017
O        1.28705097       9.93837499       0.00147127       16      -2.00000000      -2.00000000       0.00022823      -0.00108823      -0.00025653
O        4.25591943       7.74381088       0.00176654       16      -2.00000000      -2.00000000      -0.00057222      -0.00001735      -0.00024580
O        1.62884065       4.04058437      -0.00134949       16      -2.00000000      -2.00000000      -0.00092103      -0.00080736       0.00006438
O        4.67759036       1.11647657       4.08690364       20      -2.00000000      -2.00000000       0.00056824      -0.00116687      -0.00014769
O        1.14371355      10.66817278       4.08606086       20      -2.00000000      -2.00000000       0.00060543       0.00054780      -0.00014443
O        4.11559887       7.01067286       4.08616037       20      -2.00000000      -2.00000000      -0.00106297      -0.00121548      -0.00012813
O        1.77280669       4.79090452       4.08712715       20      -2.00000000      -2.00000000       0.00019180       0.00007386      -0.00016801
O        3.11106307       3.07610434       2.31196781       24      -2.00000000      -2.00000000       0.00323515       0.00270533      -0.00196538
O        2.76849836       8.71836063       5.86404671       24      -2.00000000      -2.00000000      -0.00137044      -0.00153459      -0.00017632
O        2.73180613       8.68300527       2.29382802       24      -2.00000000      -2.00000000       0.00088078       0.00099434       0.00037553
O        3.15714095       3.11857771       5.88729955       24      -2.00000000      -2.00000000      -0.00258449      -0.00242401      -0.00171867
O        5.67451013       8.96978394       5.87975303       24      -2.00000000      -2.00000000      -0.00048109       0.00043048      -0.00083311
O        0.14660528       2.84556348       2.32670945       24      -2.00000000      -2.00000000       0.00395320      -0.00388711      -0.00080738
O        0.19203717       2.80255164       5.86739340       24      -2.00000000      -2.00000000      -0.00204762       0.00191337      -0.00248832
O        5.63807468       9.00380165       2.27509589       24      -2.00000000      -2.00000000       0.00167064      -0.00197711       0.00119513
O        2.94578792       5.89225871       1.65737803       32      -2.00000000      -2.00000000      -0.00224191       0.00118906      -0.00111844
O        2.91201833       5.92052554       6.51504206       32      -2.00000000      -2.00000000       0.00086087      -0.00128872       0.00026603
O       -0.02523983       0.00381302       6.52122343       32      -2.00000000      -2.00000000       0.00188511       0.00085183      -0.00004541
O        0.00900835       0.03242242       1.65568672       32      -2.00000000      -2.00000000      -0.00257221      -0.00286683      -0.00174493
O        2.91584230       0.00978292       1.86939979       36      -2.00000000      -2.00000000      -0.00251449       0.00264886      -0.00211703
O        2.86378074       0.05921590       6.30263640       36      -2.00000000      -2.00000000       0.00339476      -0.00263381       0.00067262
O       -0.00924945       5.86471842       6.30329979       36      -2.00000000      -2.00000000       0.00094838       0.00131420      -0.00063523
O        0.04355124       5.91482062       1.87396910       36      -2.00000000      -2.00000000      -0.00396070      -0.00349945      -0.00074309
40
Lattice="5.872116450354465 0.0 0.0 -0.003895534049354009 11.762174259366155 0.0 0.0057148039935390645 0.00021282344822687983 8.17663660932406" Properties=species:S:1:pos:R:3:spacegroup_kinds:I:1:field_charges:R:1:initial_charges:R:1:forces:R:3 spacegroup="P b a m" unit_cell=conventional occupancy="_JSON {\"0\": {\"Pb\": 1.0}, \"1\": {\"Pb\": 1.0}, \"2\": {\"Pb\": 1.0}, \"3\": {\"Pb\": 1.0}, \"4\": {\"Pb\": 1.0}, \"5\": {\"Pb\": 1.0}, \"6\": {\"Pb\": 1.0}, \"7\": {\"Pb\": 1.0}, \"8\": {\"Zr\": 1.0}, \"9\": {\"Zr\": 1.0}, \"10\": {\"Zr\": 1.0}, \"11\": {\"Zr\": 1.0}, \"12\": {\"Zr\": 1.0}, \"13\": {\"Zr\": 1.0}, \"14\": {\"Zr\": 1.0}, \"15\": {\"Zr\": 1.0}, \"16\": {\"O\": 1.0}, \"17\": {\"O\": 1.0}, \"18\": {\"O\": 1.0}, \"19\": {\"O\": 1.0}, \"20\": {\"O\": 1.0}, \"21\": {\"O\": 1.0}, \"22\": {\"O\": 1.0}, \"23\": {\"O\": 1.0}, \"24\": {\"O\": 1.0}, \"25\": {\"O\": 1.0}, \"26\": {\"O\": 1.0}, \"27\": {\"O\": 1.0}, \"28\": {\"O\": 1.0}, \"29\": {\"O\": 1.0}, \"30\": {\"O\": 1.0}, \"31\": {\"O\": 1.0}, \"32\": {\"O\": 1.0}, \"33\": {\"O\": 1.0}, \"34\": {\"O\": 1.0}, \"35\": {\"O\": 1.0}, \"36\": {\"O\": 1.0}, \"37\": {\"O\": 1.0}, \"38\": {\"O\": 1.0}, \"39\": {\"O\": 1.0}}" neb_image=3 energy=-39205.77570031133 polarization_c_per_m2="_JSON [0.022017735315457997, -0.03481249139830638, -0.017995865449580713]" pbc="T T T"
Pb       1.19817150       1.39136792      -0.06553177        0       2.00000000       2.00000000      -0.00049103       0.00125213       0.01618880
Pb       4.71043977      10.24280003       0.03541971        0       2.00000000       2.00000000      -0.00163549       0.01220635       0.00737277
Pb       1.77859529       7.28855443       0.03801365        0       2.00000000       2.00000000      -0.00281800       0.00757081       0.00164451
Pb       4.12295717       4.37428802      -0.06641890        0       2.00000000       2.00000000      -0.00096480       0.01110576       0.01183542
Pb       1.20844643       1.47554697       4.04935664        4       2.00000000       2.00000000       0.00568157       0.01081804       0.01929734
Pb       4.62699578      10.21922747       4.09314191        4       2.00000000       2.00000000       0.00402846       0.00610339       0.00538842
Pb       1.74859491       7.34521513       4.09397534        4       2.00000000       2.00000000      -0.00699824       0.00540688       0.00503662
Pb       4.19868742       4.31627500       4.05787461        4       2.00000000       2.00000000      -0.00061689       0.01033863       0.00855543
Zr       4.35744578       1.44865368       2.02547484        8       4.00000000       4.00000000       0.00169881       0.00277312       0.00408550
Zr       1.51075594      10.27575470       6.13020960        8       4.00000000       4.00000000       0.00159609       0.00226200       0.00232319
Zr       1.51797386      10.28754227       2.04933256        8       4.00000000       4.00000000       0.00058718       0.00140802       0.00102004
Zr       4.35324138       1.43743188       6.13108555        8       4.00000000       4.00000000       0.00184775       0.00343017       0.00275470
Zr       4.46926245       7.32761445       6.14201483        8       4.00000000       4.00000000      -0.00200247       0.00320845       0.00050185
Zr       1.43853565       4.39622429       2.03818671        8       4.00000000       4.00000000      -0.00042893       0.00097665       0.00151278
Zr       1.43468509       4.40475088       6.12224982        8       4.00000000       4.00000000      -0.00066794       0.00234438       0.00284023
Zr       4.47581252       7.31743710       2.04037803        8       4.00000000       4.00000000      -0.00278835       0.00241836       0.00113894
O        4.50626188       1.86999776      -0.00291077       16      -2.00000000      -2.00000000       0.01304893       0.00403477       0.00013835
O        1.28750128       9.94579882       0.00372287       16      -2.00000000      -2.00000000       0.00231040      -0.00799913      -0.00110663
O        4.26655735       7.74223258       0.00387021       16      -2.00000000      -2.00000000      -0.00227011      -0.00027787      -0.00070115
O        1.63945785       4.04615373      -0.00172093       16      -2.00000000      -2.00000000      -0.00714069      -0.00624171      -0.00048506
O        4.67551094       1.12366781       4.09029331       20      -2.00000000      -2.00000000       0.00390720      -0.01159390      -0.00100588
O        1.14314175      10.65754445       4.08954181       20      -2.00000000      -2.00000000       0.00343596       0.00331828      -0.00132001
O        4.12994640       7.02339746       4.08942977       20      -2.00000000      -2.00000000      -0.00738696      -0.00843611      -0.00102151
O        1.77483862       4.79249224       4.09070943       20      -2.00000000      -2.00000000       0.00149305       0.00198287      -0.00094455
O        3.08262416       3.04871856       2.33376119       24      -2.00000000      -2.00000000       0.00930712       0.00616675      -0.00543346
O        2.78056280       8.72366972       5.87392788       24      -2.00000000      -2.00000000      -0.00177840      -0.00313612      -0.00387702
O        2.72639253       8.66944059       2.28829151       24      -2.00000000      -2.00000000      -0.00406410      -0.00351049      -0.00267305
O        3.17905759       3.13409461       5.90135266       24      -2.00000000      -2.00000000      -0.00743121      -0.00721343      -0.00775709
O        5.67959390       8.96988335       5.89439860       24      -2.00000000      -2.00000000       0.00466431      -0.00464598      -0.01063579
O        0.11041851       2.88249037       2.33798737       24      -2.00000000      -2.00000000       0.01415616      -0.01432121       0.00166885
O        0.20761076       2.79082058       5.88836227       24      -2.00000000      -2.00000000      -0.00359073       0.00341700      -0.01590814
O        5.62672621       9.02151225       2.26393050       24      -2.00000000      -2.00000000       0.00140953      -0.00388956       0.00259824
O        2.97328119       5.87703855       1.66726596       32      -2.00000000      -2.00000000      -0.00298416      -0.00193841      -0.00895957
O        2.91674895       5.92489302       6.51754292       32      -2.00000000      -2.00000000      -0.00064390      -0.00363864       0.00188384
O       -0.03433731       0.00130809       6.52453551       32      -2.00000000      -2.00000000       0.00499507       0.00005091       0.00023093
O        0.03501573       0.06068769       1.67290753       32      -2.00000000      -2.00000000      -0.00986348      -0.01378391      -0.01468044
O        2.94067365      -0.01539120       1.88928809       36      -2.00000000      -2.00000000      -0.00301386       0.00446682      -0.01594295
O        2.84224396       0.07679528       6.30074994       36      -2.00000000      -2.00000000       0.01009573      -0.00638038       0.00162076
O       -0.00566259       5.85902897       6.31242048       36      -2.00000000      -2.00000000      -0.00448189      -0.00130782      -0.00412378
O        0.08464630       5.94758190       1.88176422       36      -2.00000000      -2.00000000      -0.01020169      -0.00874590      -0.00306144
40