40
Lattice="5.871972 0.0 0.0 0.0 11.774171 0.0 0.0 0.0 8.178836" Properties=species:S:1:pos:R:3:spacegroup_kinds:I:1:field_charges:R:1:initial_charges:R:1:forces:R:3 spacegroup="P b a m" unit_cell=conventional occupancy="_JSON {\"0\": {\"Pb\": 1.0}, \"1\": {\"Pb\": 1.0}, \"2\": {\"Pb\": 1.0}, \"3\": {\"Pb\": 1.0}, \"4\": {\"Pb\": 1.0}, \"5\": {\"Pb\": 1.0}, \"6\": {\"Pb\": 1.0}, \"7\": {\"Pb\": 1.0}, \"8\": {\"Zr\": 1.0}, \"9\": {\"Zr\": 1.0}, \"10\": {\"Zr\": 1.0}, \"11\": {\"Zr\": 1.0}, \"12\": {\"Zr\": 1.0}, \"13\": {\"Zr\": 1.0}, \"14\": {\"Zr\": 1.0}, \"15\": {\"Zr\": 1.0}, \"16\": {\"O\": 1.0}, \"17\": {\"O\": 1.0}, \"18\": {\"O\": 1.0}, \"19\": {\"O\": 1.0}, \"20\": {\"O\": 1.0}, \"21\": {\"O\": 1.0}, \"22\": {\"O\": 1.0}, \"23\": {\"O\": 1.0}, \"24\": {\"O\": 1.0}, \"25\": {\"O\": 1.0}, \"26\": {\"O\": 1.0}, \"27\": {\"O\": 1.0}, \"28\": {\"O\": 1.0}, \"29\": {\"O\": 1.0}, \"30\": {\"O\": 1.0}, \"31\": {\"O\": 1.0}, \"32\": {\"O\": 1.0}, \"33\": {\"O\": 1.0}, \"34\": {\"O\": 1.0}, \"35\": {\"O\": 1.0}, \"36\": {\"O\": 1.0}, \"37\": {\"O\": 1.0}, \"38\": {\"O\": 1.0}, \"39\": {\"O\": 1.0}}" neb_image=0 energy=-39205.764739708866 polarization_c_per_m2="_JSON [-0.0012611573750599988, 0.0349032942069816, -1.3526432333244794e-15]" pbc="T T T"
Pb       1.17373646       1.45287285      -0.00000000        0       2.00000000       2.00000000       0.01811033      -0.02203254      -0.00000000
Pb       4.69823554      10.32129815      -0.00000000        0       2.00000000       2.00000000       0.02886545      -0.02506414      -0.00000000
Pb       1.76224954       7.33995835      -0.00000000        0       2.00000000       2.00000000       0.02886545      -0.02203254      -0.00000000
Pb       4.10972246       4.43421265      -0.00000000        0       2.00000000       2.00000000       0.01811033      -0.02506414      -0.00000000
Pb       1.22777814       1.51267559       4.08941800        4       2.00000000       2.00000000       0.01833476      -0.01928032       0.00000000
Pb       4.64419386      10.26149541       4.08941800        4       2.00000000       2.00000000       0.02864101      -0.02781637       0.00000000
Pb       1.70820786       7.39976109       4.08941800        4       2.00000000       2.00000000       0.02864101      -0.01928032       0.00000000
Pb       4.16376414       4.37440991       4.08941800        4       2.00000000       2.00000000       0.01833476      -0.02781637       0.00000000
Zr       4.35630128       1.46381254       2.04209901        8       4.00000000       4.00000000       0.04074979      -0.05115421       0.00128299
Zr       1.51567072      10.31035846       6.13673699        8       4.00000000       4.00000000       0.05320176      -0.04303916      -0.00128299
Zr       1.51567072      10.31035846       2.04209901        8       4.00000000       4.00000000       0.05320176      -0.04303916       0.00128299
Zr       4.35630128       1.46381254       6.13673699        8       4.00000000       4.00000000       0.04074979      -0.05115421      -0.00128299
Zr       4.45165672       7.35089804       6.13673699        8       4.00000000       4.00000000       0.05320176      -0.05115421      -0.00128299
Zr       1.42031528       4.42327296       2.04209901        8       4.00000000       4.00000000       0.04074979      -0.04303916       0.00128299
Zr       1.42031528       4.42327296       6.13673699        8       4.00000000       4.00000000       0.04074979      -0.04303916      -0.00128299
Zr       4.45165672       7.35089804       2.04209901        8       4.00000000       4.00000000       0.05320176      -0.05115421       0.00128299
O        4.55672239       1.85661981      -0.00000000       16      -2.00000000      -2.00000000      -0.01967453       0.01834648       0.00000000
O        1.31524961       9.91755119      -0.00000000       16      -2.00000000      -2.00000000      -0.02730124       0.02875020       0.00000000
O        4.25123561       7.74370531      -0.00000000       16      -2.00000000      -2.00000000      -0.02730124       0.01834648       0.00000000
O        1.62073639       4.03046569      -0.00000000       16      -2.00000000      -2.00000000      -0.01967453       0.02875020       0.00000000
O        4.70256932       1.10550087       4.08941800       20      -2.00000000      -2.00000000      -0.01760133       0.03098644      -0.00000000
O        1.16940268      10.66867013       4.08941800       20      -2.00000000      -2.00000000      -0.02937445       0.01611025      -0.00000000
O        4.10538868       6.99258637       4.08941800       20      -2.00000000      -2.00000000      -0.02937445       0.03098644      -0.00000000
O        1.76658332       4.78158463       4.08941800       20      -2.00000000      -2.00000000      -0.01760133       0.01611025      -0.00000000
O        3.12999853       3.08379167       2.30409508       24      -2.00000000      -2.00000000      -0.03345472       0.03894801      -0.00556508
O        2.74197347       8.69037933       5.87474092       24      -2.00000000      -2.00000000      -0.01352106       0.00814867       0.00556508
O        2.74197347       8.69037933       2.30409508       24      -2.00000000      -2.00000000      -0.01352106       0.00814867      -0.00556508
O        3.12999853       3.08379167       5.87474092       24      -2.00000000      -2.00000000      -0.03345472       0.03894801       0.00556508
O        5.67795947       8.97087717       5.87474092       24      -2.00000000      -2.00000000      -0.01352106       0.03894801       0.00556508
O        0.19401253       2.80329383       2.30409508       24      -2.00000000      -2.00000000      -0.03345472       0.00814867      -0.00556508
O        0.19401253       2.80329383       5.87474092       24      -2.00000000      -2.00000000      -0.03345472       0.00814867       0.00556508
O        5.67795947       8.97087717       2.30409508       24      -2.00000000      -2.00000000      -0.01352106       0.03894801      -0.00556508
O        2.93598600       5.88708550       1.65175084       32      -2.00000000      -2.00000000      -0.02348789       0.02354834       0.00096873
O        2.93598600       5.88708550       6.52708516       32      -2.00000000      -2.00000000      -0.02348789       0.02354834      -0.00096873
O        0.00000000       0.00000000       6.52708516       32      -2.00000000      -2.00000000      -0.02348789       0.02354834      -0.00096873
O       -0.00000000       0.00000000       1.65175084       32      -2.00000000      -2.00000000      -0.02348789       0.02354834       0.00096873
O        2.93598600       0.00000000       1.87160782       36      -2.00000000      -2.00000000      -0.02348789       0.02354834       0.00119428
O        2.93598600       0.00000000       6.30722818       36      -2.00000000      -2.00000000      -0.02348789       0.02354834      -0.00119428
O        0.00000000       5.88708550       6.30722818       36      -2.00000000      -2.00000000      -0.02348789       0.02354834      -0.00119428
O        0.00000000       5.88708550       1.87160782       36      -2.00000000      -2.00000000      -0.02348789       0.02354834       0.00119428
40
Lattice="5.869491730485579 0.0 0.0 -0.004707273002183574 11.765890730431003 0.0 1.599949284024101e-05 4.74671324279051e-07 8.171544736499914" Properties=species:S:1:pos:R:3:spacegroup_kinds:I:1:field_charges:R:1:initial_charges:R:1:forces:R:3 spacegroup="P b a m" unit_cell=conventional occupancy="_JSON {\"0\": {\"Pb\": 1.0}, \"1\": {\"Pb\": 1.0}, \"2\": {\"Pb\": 1.0}, \"3\": {\"Pb\": 1.0}, \"4\": {\"Pb\": 1.0}, \"5\": {\"Pb\": 1.0}, \"6\": {\"Pb\": 1.0}, \"7\": {\"Pb\": 1.0}, \"8\": {\"Zr\": 1.0}, \"9\": {\"Zr\": 1.0}, \"10\": {\"Zr\": 1.0}, \"11\": {\"Zr\": 1.0}, \"12\": {\"Zr\": 1.0}, \"13\": {\"Zr\": 1.0}, \"14\": {\"Zr\": 1.0}, \"15\": {\"Zr\": 1.0}, \"16\": {\"O\": 1.0}, \"17\": {\"O\": 1.0}, \"18\": {\"O\": 1.0}, \"19\": {\"O\": 1.0}, \"20\": {\"O\": 1.0}, \"21\": {\"O\": 1.0}, \"22\": {\"O\": 1.0}, \"23\": {\"O\": 1.0}, \"24\": {\"O\": 1.0}, \"25\": {\"O\": 1.0}, \"26\": {\"O\": 1.0}, \"27\": {\"O\": 1.0}, \"28\": {\"O\": 1.0}, \"29\": {\"O\": 1.0}, \"30\": {\"O\": 1.0}, \"31\": {\"O\": 1.0}, \"32\": {\"O\": 1.0}, \"33\": {\"O\": 1.0}, \"34\": {\"O\": 1.0}, \"35\": {\"O\": 1.0}, \"36\": {\"O\": 1.0}, \"37\": {\"O\": 1.0}, \"38\": {\"O\": 1.0}, \"39\": {\"O\": 1.0}}" neb_image=1 energy=-39205.78198623598 polarization_c_per_m2="_JSON [0.020179860706043252, -0.006974712670784638, -4.447172837607356e-06]" pbc="T T T"
Pb       1.19171428       1.41344992      -0.00015327        0       2.00000000       2.00000000       0.00427991      -0.00864684       0.00001342
Pb       4.70488157      10.27854512       0.00015449        0       2.00000000       2.00000000       0.00285367      -0.00797937      -0.00001678
Pb       1.76981110       7.30691715       0.00014983        0       2.00000000       2.00000000       0.00252355      -0.00629029      -0.00001616
Pb       4.11711881       4.39898796      -0.00016794        0       2.00000000       2.00000000       0.00244016      -0.00725401       0.00001459
Pb       1.22263951       1.49274029       4.08571796        4       2.00000000       2.00000000      -0.00092001      -0.00425821       0.00000264
Pb       4.63393104      10.23417569       4.08581959        4       2.00000000       2.00000000      -0.00095440      -0.00454412      -0.00000591
Pb       1.72843936       7.36610725       4.08582217        4       2.00000000       2.00000000       0.00539191      -0.00639758      -0.00000606
Pb       4.18540994       4.34269918       4.08572012        4       2.00000000       2.00000000       0.00565871      -0.00643664       0.00000317
Zr       4.35587492       1.45183478       2.03681005        8       4.00000000       4.00000000       0.00043310      -0.00247041      -0.00077515
Zr       1.51441726      10.29144283       6.12769667        8       4.00000000       4.00000000       0.00078113      -0.00262092      -0.00080839
Zr       1.51443630      10.29147717       2.04387477        8       4.00000000       4.00000000       0.00077855      -0.00262430       0.00080492
Zr       4.35585785       1.45179790       6.13470189        8       4.00000000       4.00000000       0.00043594      -0.00246668       0.00077690
Zr       4.45928327       7.33216064       6.13420949        8       4.00000000       4.00000000       0.00280613      -0.00306366       0.00066003
Zr       1.42815144       4.40710376       2.04317806        8       4.00000000       4.00000000       0.00228988      -0.00293374       0.00065857
Zr       1.42813046       4.40714043       6.12833599        8       4.00000000       4.00000000       0.00229307      -0.00293777      -0.00065632
Zr       4.45930355       7.33212279       2.03736467        8       4.00000000       4.00000000       0.00280343      -0.00305962      -0.00066312
O        4.53374034       1.87309373      -0.00000835       16      -2.00000000      -2.00000000      -0.00459292       0.00399166       0.00000068
O        1.29468807       9.93159387       0.00000733       16      -2.00000000      -2.00000000      -0.00361691       0.00472595      -0.00000066
O        4.25040148       7.74400236       0.00000839       16      -2.00000000      -2.00000000       0.00093496       0.00128817      -0.00000060
O        1.62322953       4.03697868      -0.00000801       16      -2.00000000      -2.00000000       0.00110113       0.00210775       0.00000089
O        4.68372783       1.11442127       4.08577581       20      -2.00000000      -2.00000000      -0.00370405       0.00219589      -0.00000026
O        1.14952101      10.66880577       4.08576987       20      -2.00000000      -2.00000000      -0.00340012       0.00173268       0.00000054
O        4.10824501       7.00361374       4.08577012       20      -2.00000000      -2.00000000       0.00167808       0.00357803       0.00000057
O        1.76970846       4.78884340       4.08577624       20      -2.00000000      -2.00000000       0.00130589       0.00237020      -0.00000019
O        3.13199232       3.09449338       2.29835259       24      -2.00000000      -2.00000000       0.00107617       0.00295009      -0.00086352
O        2.74599116       8.69560290       5.86939768       24      -2.00000000      -2.00000000       0.00193970       0.00254850      -0.00002059
O        2.74577412       8.69539784       2.30204960       24      -2.00000000      -2.00000000       0.00196249       0.00256996       0.00003308
O        3.13222002       3.09470838       5.87332017       24      -2.00000000      -2.00000000       0.00105803       0.00293139       0.00085392
O        5.66052184       8.98144577       5.88276975       24      -2.00000000      -2.00000000      -0.00259077       0.00381093       0.00298130
O        0.17639039       2.81633169       2.31256607       24      -2.00000000      -2.00000000      -0.00365019       0.00333279       0.00233041
O        0.17661459       2.81611849       5.85908612       24      -2.00000000      -2.00000000      -0.00366803       0.00335026      -0.00233950
O        5.66030600       8.98164482       2.28866499       24      -2.00000000      -2.00000000      -0.00256802       0.00378951      -0.00296859
O        2.92641434       5.90216045       1.65373939       32      -2.00000000      -2.00000000      -0.00138210       0.00436308       0.00079117
O        2.92622811       5.90231567       6.51779743       32      -2.00000000      -2.00000000      -0.00136272       0.00434794      -0.00078954
O       -0.00717591       0.01278421       6.52020457       32      -2.00000000      -2.00000000      -0.00161820       0.00288074      -0.00023988
O       -0.00699501       0.01293390       1.65134970       32      -2.00000000      -2.00000000      -0.00163571       0.00286729       0.00024151
O        2.90118431       0.02575488       1.86865512       36      -2.00000000      -2.00000000      -0.00763522       0.00586837      -0.00029274
O        2.90090254       0.02602243       6.30288023       36      -2.00000000      -2.00000000      -0.00760727       0.00584267       0.00029440
O        0.00652763       5.88399914       6.30125289       36      -2.00000000      -2.00000000       0.00205525       0.00028331      -0.00008183
O        0.00681740       5.88427110       1.87030354       36      -2.00000000      -2.00000000       0.00202581       0.00025697       0.00008307
40
Lattice="5.869982809078694 0.0 0.0 -0.007645815814986936 11.765225945773246 0.0 0.002872338648372812 0.00011768740154352799 8.172367277018934" Properties=species:S:1:pos:R:3:spacegroup_kinds:I:1:field_charges:R:1:initial_charges:R:1:forces:R:3 spacegroup="P b a m" unit_cell=conventional occupancy="_JSON {\"0\": {\"Pb\": 1.0}, \"1\": {\"Pb\": 1.0}, \"2\": {\"Pb\": 1.0}, \"3\": {\"Pb\": 1.0}, \"4\": {\"Pb\": 1.0}, \"5\": {\"Pb\": 1.0}, \"6\": {\"Pb\": 1.0}, \"7\": {\"Pb\": 1.0}, \"8\": {\"Zr\": 1.0}, \"9\": {\"Zr\": 1.0}, \"10\": {\"Zr\": 1.0}, \"11\": {\"Zr\": 1.0}, \"12\": {\"Zr\": 1.0}, \"13\": {\"Zr\": 1.0}, \"14\": {\"Zr\": 1.0}, \"15\": {\"Zr\": 1.0}, \"16\": {\"O\": 1.0}, \"17\": {\"O\": 1.0}, \"18\": {\"O\": 1.0}, \"19\": {\"O\": 1.0}, \"20\": {\"O\": 1.0}, \"21\": {\"O\": 1.0}, \"22\": {\"O\": 1.0}, \"23\": {\"O\": 1.0}, \"24\": {\"O\": 1.0}, \"25\": {\"O\": 1.0}, \"26\": {\"O\": 1.0}, \"27\": {\"O\": 1.0}, \"28\": {\"O\": 1.0}, \"29\": {\"O\": 1.0}, \"30\": {\"O\": 1.0}, \"31\": {\"O\": 1.0}, \"32\": {\"O\": 1.0}, \"33\": {\"O\": 1.0}, \"34\": {\"O\": 1.0}, \"35\": {\"O\": 1.0}, \"36\": {\"O\": 1.0}, \"37\": {\"O\": 1.0}, \"38\": {\"O\": 1.0}, \"39\": {\"O\": 1.0}}" neb_image=2 energy=-39205.78186313254 polarization_c_per_m2="_JSON [0.02322835591198887, -0.02186303827932651, -0.0033215213810959265]" pbc="T T T"
Pb       1.19746851       1.39802848      -0.03021278        0       2.00000000       2.00000000       0.00006650       0.00033611       0.00419787
Pb       4.70327276      10.26474039       0.02660233        0       2.00000000       2.00000000      -0.00027138       0.00168421      -0.00153875
Pb       1.77036884       7.29637895       0.02587226        0       2.00000000       2.00000000      -0.00034110       0.00091789      -0.00176504
Pb       4.11795925       4.38477135      -0.03325026        0       2.00000000       2.00000000      -0.00022009       0.00139615       0.00391707
Pb       1.21741526       1.48516206       4.07306663        4       2.00000000       2.00000000       0.00094828       0.00113126       0.00276418
Pb       4.62796126      10.22549873       4.09326948        4       2.00000000       2.00000000       0.00066761       0.00064728       0.00008766
Pb       1.73758272       7.35602789       4.09377734        4       2.00000000       2.00000000      -0.00091913       0.00076949       0.00000462
Pb       4.19419952       4.33269137       4.07423654        4       2.00000000       2.00000000      -0.00010308       0.00123519       0.00210007
Zr       4.35653767       1.45178111       2.03204692        8       4.00000000       4.00000000       0.00010096       0.00017199       0.00078993
Zr       1.50969438      10.28419239       6.12884810        8       4.00000000       4.00000000       0.00052567       0.00059844       0.00014061
Zr       1.51338275      10.29052001       2.04753222        8       4.00000000       4.00000000      -0.00010875      -0.00010645      -0.00013050
Zr       4.35381421       1.44504645       6.13271794        8       4.00000000       4.00000000       0.00051727       0.00078600       0.00061116
Zr       4.46132580       7.33091131       6.13842128        8       4.00000000       4.00000000      -0.00008521       0.00012075      -0.00015895
Zr       1.43317503       4.40035099       2.04118004        8       4.00000000       4.00000000      -0.00027830       0.00042400       0.00045846
Zr       1.42968818       4.40662861       6.12452957        8       4.00000000       4.00000000      -0.00002340       0.00003880       0.00062179
Zr       4.46517364       7.32420501       2.03893416        8       4.00000000       4.00000000      -0.00058805       0.00059185      -0.00005761
O        4.52140392       1.87557156      -0.00164547       16      -2.00000000      -2.00000000       0.00188699       0.00050629       0.00017829
O        1.28746829       9.93827254       0.00146045       16      -2.00000000      -2.00000000       0.00007723      -0.00105305      -0.00024822
O        4.25568535       7.74375137       0.00176474       16      -2.00000000      -2.00000000      -0.00043401      -0.00002174      -0.00024570
O        1.62883051       4.04067984      -0.00137827       16      -2.00000000      -2.00000000      -0.00088778      -0.00079121       0.00007494
O        4.67769457       1.11705283       4.08691907       20      -2.00000000      -2.00000000       0.00051061      -0.00110520      -0.00014490
O        1.14395287      10.66881485       4.08605526       20      -2.00000000      -2.00000000       0.00060975       0.00046676      -0.00013319
O        4.11576721       7.00986967       4.08617018       20      -2.00000000      -2.00000000      -0.00108112      -0.00105720      -0.00012869
O        1.77285642       4.79018818       4.08713914       20      -2.00000000      -2.00000000       0.00023598       0.00013053      -0.00016237
O        3.11186657       3.07685832       2.31120626       24      -2.00000000      -2.00000000       0.00315684       0.00264287      -0.00189350
O        2.76969933       8.71947090       5.86298959       24      -2.00000000      -2.00000000      -0.00151350      -0.00167008       0.00005236
O        2.73259857       8.68372722       2.29466424       24      -2.00000000      -2.00000000       0.00082622       0.00093646       0.00022359
O        3.15809165       3.11951667       5.88809241       24      -2.00000000      -2.00000000      -0.00263713      -0.00248551      -0.00172188
O        5.67573647       8.96866476       5.87898425       24      -2.00000000      -2.00000000      -0.00064369       0.00057720      -0.00075426
O        0.14743850       2.84471323       2.32605501       24      -2.00000000      -2.00000000       0.00386801      -0.00377443      -0.00079706
O        0.19304759       2.80151807       5.86815219       24      -2.00000000      -2.00000000      -0.00211630       0.00199044      -0.00246335
O        5.63884648       9.00311135       2.27553150       24      -2.00000000      -2.00000000       0.00161712      -0.00192201       0.00123229
O        2.94483997       5.89307238       1.65757817       32      -2.00000000      -2.00000000      -0.00209474       0.00110251      -0.00112929
O        2.91076014       5.92158242       6.51475579       32      -2.00000000      -2.00000000       0.00105302      -0.00141399       0.00032066
O       -0.02621182       0.00292387       6.52135581       32      -2.00000000      -2.00000000       0.00191507       0.00090662      -0.00008715
O        0.00827105       0.03168726       1.65544265       32      -2.00000000      -2.00000000      -0.00250588      -0.00275196      -0.00158450
O        2.91536154       0.01041299       1.86932945       36      -2.00000000      -2.00000000      -0.00254435       0.00263161      -0.00205260
O        2.86285869       0.06024324       6.30251584       36      -2.00000000      -2.00000000       0.00343379      -0.00272128       0.00074244
O       -0.01055372       5.86340907       6.30330473       36      -2.00000000      -2.00000000       0.00117456       0.00149563      -0.00067675
O        0.04269341       5.91390207       1.87386150       36      -2.00000000      -2.00000000      -0.00379449      -0.00336219      -0.00064374
40
Lattice="5.871837326723254 0.0 0.0 -0.00323391947211279 11.762021805551816 0.0 0.005571400387937206 0.00023742963299814041 8.176575498620451" Properties=species:S:1:pos:R:3:spacegroup_kinds:I:1:field_charges:R:1:initial_charges:R:1:forces:R:3 spacegroup="P b a m" unit_cell=conventional occupancy="_JSON {\"0\": {\"Pb\": 1.0}, \"1\": {\"Pb\": 1.0}, \"2\": {\"Pb\": 1.0}, \"3\": {\"Pb\": 1.0}, \"4\": {\"Pb\": 1.0}, \"5\": {\"Pb\": 1.0}, \"6\": {\"Pb\": 1.0}, \"7\": {\"Pb\": 1.0}, \"8\": {\"Zr\": 1.0}, \"9\": {\"Zr\": 1.0}, \"10\": {\"Zr\": 1.0}, \"11\": {\"Zr\": 1.0}, \"12\": {\"Zr\": 1.0}, \"13\": {\"Zr\": 1.0}, \"14\": {\"Zr\": 1.0}, \"15\": {\"Zr\": 1.0}, \"16\": {\"O\": 1.0}, \"17\": {\"O\": 1.0}, \"18\": {\"O\": 1.0}, \"19\": {\"O\": 1.0}, \"20\": {\"O\": 1.0}, \"21\": {\"O\": 1.0}, \"22\": {\"O\": 1.0}, \"23\": {\"O\": 1.0}, \"24\": {\"O\": 1.0}, \"25\": {\"O\": 1.0}, \"26\": {\"O\": 1.0}, \"27\": {\"O\": 1.0}, \"28\": {\"O\": 1.0}, \"29\": {\"O\": 1.0}, \"30\": {\"O\": 1.0}, \"31\": {\"O\": 1.0}, \"32\": {\"O\": 1.0}, \"33\": {\"O\": 1.0}, \"34\": {\"O\": 1.0}, \"35\": {\"O\": 1.0}, \"36\": {\"O\": 1.0}, \"37\": {\"O\": 1.0}, \"38\": {\"O\": 1.0}, \"39\": {\"O\": 1.0}}" neb_image=3 energy=-39205.77599485468 polarization_c_per_m2="_JSON [0.022140019599956498, -0.03340914489961431, -0.016731700385593413]" pbc="T T T"
Pb       1.19838448       1.39273091      -0.06629029        0       2.00000000       2.00000000      -0.00082570       0.00139346       0.01558987
Pb       4.71078229      10.24494841       0.03863536        0       2.00000000       2.00000000      -0.00178483       0.01141690       0.00614107
Pb       1.77790102       7.28854582       0.04053309        0       2.00000000       2.00000000      -0.00235569       0.00737518       0.00095760
Pb       4.12315804       4.37442433      -0.06723120        0       2.00000000       2.00000000      -0.00093900       0.01043940       0.01139547
Pb       1.20995906       1.47608395       4.05067110        4       2.00000000       2.00000000       0.00527189       0.00991979       0.01756480
Pb       4.62800431      10.21925680       4.09432903        4       2.00000000       2.00000000       0.00398219       0.00552275       0.00496455
Pb       1.74860263       7.34615588       4.09541070        4       2.00000000       2.00000000      -0.00664433       0.00496545       0.00436727
Pb       4.19863984       4.31842480       4.05804761        4       2.00000000       2.00000000      -0.00055453       0.00933398       0.00832971
Zr       4.35802486       1.44943010       2.02580783        8       4.00000000       4.00000000       0.00138564       0.00252991       0.00387619
Zr       1.51132610      10.27589634       6.13063387        8       4.00000000       4.00000000       0.00155702       0.00217714       0.00217464
Zr       1.51896992      10.28810672       2.04962357        8       4.00000000       4.00000000       0.00038424       0.00114510       0.00080970
Zr       4.35326655       1.43772738       6.13089770        8       4.00000000       4.00000000       0.00172896       0.00322658       0.00264116
Zr       4.46861087       7.32815417       6.14244892        8       4.00000000       4.00000000      -0.00172625       0.00286674       0.00034527
Zr       1.43859195       4.39590674       2.03812873        8       4.00000000       4.00000000      -0.00032095       0.00106989       0.00146357
Zr       1.43430224       4.40527516       6.12233825        8       4.00000000       4.00000000      -0.00057352       0.00211353       0.00271310
Zr       4.47548082       7.31740114       2.04070350        8       4.00000000       4.00000000      -0.00253251       0.00223658       0.00098220
O        4.50714442       1.87034484      -0.00308436       16      -2.00000000      -2.00000000       0.01248845       0.00368811       0.00020459
O        1.28952995       9.94496627       0.00368851       16      -2.00000000      -2.00000000       0.00151547      -0.00757852      -0.00105950
O        4.26540825       7.74199366       0.00393479       16      -2.00000000      -2.00000000      -0.00159113      -0.00033479      -0.00071773
O        1.63850213       4.04584949      -0.00192916       16      -2.00000000      -2.00000000      -0.00661029      -0.00588114      -0.00038792
O        4.67604440       1.12362997       4.09022369       20      -2.00000000      -2.00000000       0.00346363      -0.01037386      -0.00093157
O        1.14416248      10.65882703       4.08934416       20      -2.00000000      -2.00000000       0.00343973       0.00295060      -0.00121198
O        4.12968934       7.02091103       4.08933760       20      -2.00000000      -2.00000000      -0.00712839      -0.00742368      -0.00097548
O        1.77457288       4.79123005       4.09061396       20      -2.00000000      -2.00000000       0.00166003       0.00194151      -0.00085037
O        3.08339935       3.04916197       2.33256465       24      -2.00000000      -2.00000000       0.00911856       0.00617645      -0.00521911
O        2.78408045       8.72668000       5.87060111       24      -2.00000000      -2.00000000      -0.00229871      -0.00357458      -0.00276407
O        2.72634760       8.66908779       2.28939827       24      -2.00000000      -2.00000000      -0.00366943      -0.00311088      -0.00303299
O        3.18086800       3.13603870       5.90247127       24      -2.00000000      -2.00000000      -0.00747662      -0.00726427      -0.00732282
O        5.68369342       8.96596751       5.89168146       24      -2.00000000      -2.00000000       0.00383317      -0.00388096      -0.01004319
O        0.11193297       2.88083195       2.33737883       24      -2.00000000      -2.00000000       0.01379820      -0.01382633       0.00126572
O        0.21019646       2.78807313       5.88902900       24      -2.00000000      -2.00000000      -0.00392862       0.00377170      -0.01471997
O        5.62715300       9.02089914       2.26396096       24      -2.00000000      -2.00000000       0.00157051      -0.00395437       0.00293526
O        2.97197372       5.87754018       1.66702005       32      -2.00000000      -2.00000000      -0.00282769      -0.00168478      -0.00845590
O        2.91279410       5.92746791       6.51679533       32      -2.00000000      -2.00000000       0.00021250      -0.00399996       0.00198996
O       -0.03646195      -0.00101361       6.52477827       32      -2.00000000      -2.00000000       0.00489986       0.00023188       0.00001703
O        0.03438774       0.05916828       1.67122638       32      -2.00000000      -2.00000000      -0.00973812      -0.01319380      -0.01325252
O        2.94192905      -0.01598922       1.88823201       36      -2.00000000      -2.00000000      -0.00382950       0.00498185      -0.01506378
O        2.84011045       0.07939993       6.29998641       36      -2.00000000      -2.00000000       0.00997316      -0.00659047       0.00200171
O       -0.01076306       5.85445963       6.31212302       36      -2.00000000      -2.00000000      -0.00323031      -0.00038219      -0.00417146
O        0.08330360       5.94619667       1.88114368       36      -2.00000000      -2.00000000      -0.00969710      -0.00841991      -0.00255007
40