40
Lattice="5.871972 0.0 0.0 0.0 11.774171 0.0 0.0 0.0 8.178836" Properties=species:S:1:pos:R:3:spacegroup_kinds:I:1:field_charges:R:1:initial_charges:R:1:forces:R:3 spacegroup="P b a m" unit_cell=conventional occupancy="_JSON {\"0\": {\"Pb\": 1.0}, \"1\": {\"Pb\": 1.0}, \"2\": {\"Pb\": 1.0}, \"3\": {\"Pb\": 1.0}, \"4\": {\"Pb\": 1.0}, \"5\": {\"Pb\": 1.0}, \"6\": {\"Pb\": 1.0}, \"7\": {\"Pb\": 1.0}, \"8\": {\"Zr\": 1.0}, \"9\": {\"Zr\": 1.0}, \"10\": {\"Zr\": 1.0}, \"11\": {\"Zr\": 1.0}, \"12\": {\"Zr\": 1.0}, \"13\": {\"Zr\": 1.0}, \"14\": {\"Zr\": 1.0}, \"15\": {\"Zr\": 1.0}, \"16\": {\"O\": 1.0}, \"17\": {\"O\": 1.0}, \"18\": {\"O\": 1.0}, \"19\": {\"O\": 1.0}, \"20\": {\"O\": 1.0}, \"21\": {\"O\": 1.0}, \"22\": {\"O\": 1.0}, \"23\": {\"O\": 1.0}, \"24\": {\"O\": 1.0}, \"25\": {\"O\": 1.0}, \"26\": {\"O\": 1.0}, \"27\": {\"O\": 1.0}, \"28\": {\"O\": 1.0}, \"29\": {\"O\": 1.0}, \"30\": {\"O\": 1.0}, \"31\": {\"O\": 1.0}, \"32\": {\"O\": 1.0}, \"33\": {\"O\": 1.0}, \"34\": {\"O\": 1.0}, \"35\": {\"O\": 1.0}, \"36\": {\"O\": 1.0}, \"37\": {\"O\": 1.0}, \"38\": {\"O\": 1.0}, \"39\": {\"O\": 1.0}}" neb_image=0 energy=-39205.764739708866 polarization_c_per_m2="_JSON [-0.0012611573750599988, 0.0349032942069816, -1.3526432333244794e-15]" pbc="T T T"
Pb       1.17373646       1.45287285      -0.00000000        0       2.00000000       2.00000000       0.01811033      -0.02203254      -0.00000000
Pb       4.69823554      10.32129815      -0.00000000        0       2.00000000       2.00000000       0.02886545      -0.02506414      -0.00000000
Pb       1.76224954       7.33995835      -0.00000000        0       2.00000000       2.00000000       0.02886545      -0.02203254      -0.00000000
Pb       4.10972246       4.43421265      -0.00000000        0       2.00000000       2.00000000       0.01811033      -0.02506414      -0.00000000
Pb       1.22777814       1.51267559       4.08941800        4       2.00000000       2.00000000       0.01833476      -0.01928032       0.00000000
Pb       4.64419386      10.26149541       4.08941800        4       2.00000000       2.00000000       0.02864101      -0.02781637       0.00000000
Pb       1.70820786       7.39976109       4.08941800        4       2.00000000       2.00000000       0.02864101      -0.01928032       0.00000000
Pb       4.16376414       4.37440991       4.08941800        4       2.00000000       2.00000000       0.01833476      -0.02781637       0.00000000
Zr       4.35630128       1.46381254       2.04209901        8       4.00000000       4.00000000       0.04074979      -0.05115421       0.00128299
Zr       1.51567072      10.31035846       6.13673699        8       4.00000000       4.00000000       0.05320176      -0.04303916      -0.00128299
Zr       1.51567072      10.31035846       2.04209901        8       4.00000000       4.00000000       0.05320176      -0.04303916       0.00128299
Zr       4.35630128       1.46381254       6.13673699        8       4.00000000       4.00000000       0.04074979      -0.05115421      -0.00128299
Zr       4.45165672       7.35089804       6.13673699        8       4.00000000       4.00000000       0.05320176      -0.05115421      -0.00128299
Zr       1.42031528       4.42327296       2.04209901        8       4.00000000       4.00000000       0.04074979      -0.04303916       0.00128299
Zr       1.42031528       4.42327296       6.13673699        8       4.00000000       4.00000000       0.04074979      -0.04303916      -0.00128299
Zr       4.45165672       7.35089804       2.04209901        8       4.00000000       4.00000000       0.05320176      -0.05115421       0.00128299
O        4.55672239       1.85661981      -0.00000000       16      -2.00000000      -2.00000000      -0.01967453       0.01834648       0.00000000
O        1.31524961       9.91755119      -0.00000000       16      -2.00000000      -2.00000000      -0.02730124       0.02875020       0.00000000
O        4.25123561       7.74370531      -0.00000000       16      -2.00000000      -2.00000000      -0.02730124       0.01834648       0.00000000
O        1.62073639       4.03046569      -0.00000000       16      -2.00000000      -2.00000000      -0.01967453       0.02875020       0.00000000
O        4.70256932       1.10550087       4.08941800       20      -2.00000000      -2.00000000      -0.01760133       0.03098644      -0.00000000
O        1.16940268      10.66867013       4.08941800       20      -2.00000000      -2.00000000      -0.02937445       0.01611025      -0.00000000
O        4.10538868       6.99258637       4.08941800       20      -2.00000000      -2.00000000      -0.02937445       0.03098644      -0.00000000
O        1.76658332       4.78158463       4.08941800       20      -2.00000000      -2.00000000      -0.01760133       0.01611025      -0.00000000
O        3.12999853       3.08379167       2.30409508       24      -2.00000000      -2.00000000      -0.03345472       0.03894801      -0.00556508
O        2.74197347       8.69037933       5.87474092       24      -2.00000000      -2.00000000      -0.01352106       0.00814867       0.00556508
O        2.74197347       8.69037933       2.30409508       24      -2.00000000      -2.00000000      -0.01352106       0.00814867      -0.00556508
O        3.12999853       3.08379167       5.87474092       24      -2.00000000      -2.00000000      -0.03345472       0.03894801       0.00556508
O        5.67795947       8.97087717       5.87474092       24      -2.00000000      -2.00000000      -0.01352106       0.03894801       0.00556508
O        0.19401253       2.80329383       2.30409508       24      -2.00000000      -2.00000000      -0.03345472       0.00814867      -0.00556508
O        0.19401253       2.80329383       5.87474092       24      -2.00000000      -2.00000000      -0.03345472       0.00814867       0.00556508
O        5.67795947       8.97087717       2.30409508       24      -2.00000000      -2.00000000      -0.01352106       0.03894801      -0.00556508
O        2.93598600       5.88708550       1.65175084       32      -2.00000000      -2.00000000      -0.02348789       0.02354834       0.00096873
O        2.93598600       5.88708550       6.52708516       32      -2.00000000      -2.00000000      -0.02348789       0.02354834      -0.00096873
O        0.00000000       0.00000000       6.52708516       32      -2.00000000      -2.00000000      -0.02348789       0.02354834      -0.00096873
O       -0.00000000       0.00000000       1.65175084       32      -2.00000000      -2.00000000      -0.02348789       0.02354834       0.00096873
O        2.93598600       0.00000000       1.87160782       36      -2.00000000      -2.00000000      -0.02348789       0.02354834       0.00119428
O        2.93598600       0.00000000       6.30722818       36      -2.00000000      -2.00000000      -0.02348789       0.02354834      -0.00119428
O        0.00000000       5.88708550       6.30722818       36      -2.00000000      -2.00000000      -0.02348789       0.02354834      -0.00119428
O        0.00000000       5.88708550       1.87160782       36      -2.00000000      -2.00000000      -0.02348789       0.02354834       0.00119428
40
Lattice="5.869493703437507 0.0 0.0 -0.004774078040836469 11.765893710295906 0.0 -2.278953914254798e-05 -4.512927504926695e-07 8.171533077811853" Properties=species:S:1:pos:R:3:spacegroup_kinds:I:1:field_charges:R:1:initial_charges:R:1:forces:R:3 spacegroup="P b a m" unit_cell=conventional occupancy="_JSON {\"0\": {\"Pb\": 1.0}, \"1\": {\"Pb\": 1.0}, \"2\": {\"Pb\": 1.0}, \"3\": {\"Pb\": 1.0}, \"4\": {\"Pb\": 1.0}, \"5\": {\"Pb\": 1.0}, \"6\": {\"Pb\": 1.0}, \"7\": {\"Pb\": 1.0}, \"8\": {\"Zr\": 1.0}, \"9\": {\"Zr\": 1.0}, \"10\": {\"Zr\": 1.0}, \"11\": {\"Zr\": 1.0}, \"12\": {\"Zr\": 1.0}, \"13\": {\"Zr\": 1.0}, \"14\": {\"Zr\": 1.0}, \"15\": {\"Zr\": 1.0}, \"16\": {\"O\": 1.0}, \"17\": {\"O\": 1.0}, \"18\": {\"O\": 1.0}, \"19\": {\"O\": 1.0}, \"20\": {\"O\": 1.0}, \"21\": {\"O\": 1.0}, \"22\": {\"O\": 1.0}, \"23\": {\"O\": 1.0}, \"24\": {\"O\": 1.0}, \"25\": {\"O\": 1.0}, \"26\": {\"O\": 1.0}, \"27\": {\"O\": 1.0}, \"28\": {\"O\": 1.0}, \"29\": {\"O\": 1.0}, \"30\": {\"O\": 1.0}, \"31\": {\"O\": 1.0}, \"32\": {\"O\": 1.0}, \"33\": {\"O\": 1.0}, \"34\": {\"O\": 1.0}, \"35\": {\"O\": 1.0}, \"36\": {\"O\": 1.0}, \"37\": {\"O\": 1.0}, \"38\": {\"O\": 1.0}, \"39\": {\"O\": 1.0}}" neb_image=1 energy=-39205.78202280124 polarization_c_per_m2="_JSON [0.02026207909496108, -0.007240500938658594, 2.2846875544674638e-05]" pbc="T T T"
Pb       1.19181767       1.41320042       0.00022800        0       2.00000000       2.00000000       0.00418879      -0.00848503      -0.00002659
Pb       4.70485087      10.27836752      -0.00020428        0       2.00000000       2.00000000       0.00276092      -0.00781436       0.00001088
Pb       1.76979391       7.30669121      -0.00019794        0       2.00000000       2.00000000       0.00244467      -0.00615392       0.00001212
Pb       4.11711847       4.39869676       0.00025002        0       2.00000000       2.00000000       0.00236271      -0.00710935      -0.00002937
Pb       1.22255615       1.49259196       4.08586169        4       2.00000000       2.00000000      -0.00093942      -0.00416548      -0.00001865
Pb       4.63379714      10.23399461       4.08571197        4       2.00000000       2.00000000      -0.00097044      -0.00444715      -0.00000002
Pb       1.72856962       7.36595950       4.08570931        4       2.00000000       2.00000000       0.00527774      -0.00625360      -0.00000028
Pb       4.18555593       4.34256930       4.08585445        4       2.00000000       2.00000000       0.00554004      -0.00629257      -0.00001440
Zr       4.35580630       1.45174271       2.03683420        8       4.00000000       4.00000000       0.00040364      -0.00240052      -0.00076449
Zr       1.51434306      10.29143076       6.12763571        8       4.00000000       4.00000000       0.00073185      -0.00255727      -0.00079109
Zr       1.51431516      10.29138211       2.04386549        8       4.00000000       4.00000000       0.00073565      -0.00255257       0.00079080
Zr       4.35582736       1.45179476       6.13475324        8       4.00000000       4.00000000       0.00040185      -0.00240477       0.00075482
Zr       4.45931099       7.33203444       6.13419477        8       4.00000000       4.00000000       0.00272819      -0.00298252       0.00064847
Zr       1.42813454       4.40707564       2.04323832        8       4.00000000       4.00000000       0.00223183      -0.00285851       0.00064036
Zr       1.42816104       4.40702726       6.12834475        8       4.00000000       4.00000000       0.00222950      -0.00285611      -0.00064771
Zr       4.45928248       7.33208622       2.03730196        8       4.00000000       4.00000000       0.00273221      -0.00298616      -0.00064697
O        4.53357294       1.87318611       0.00001185       16      -2.00000000      -2.00000000      -0.00450858       0.00388364      -0.00000113
O        1.29453820       9.93170927      -0.00001118       16      -2.00000000      -2.00000000      -0.00352416       0.00461813       0.00000151
O        4.25043708       7.74401575      -0.00001254       16      -2.00000000      -2.00000000       0.00095062       0.00124438       0.00000183
O        1.62330103       4.03703717       0.00001068       16      -2.00000000      -2.00000000       0.00111249       0.00205688      -0.00000033
O        4.68358144       1.11451219       4.08576076       20      -2.00000000      -2.00000000      -0.00363439       0.00212306       0.00000081
O        1.14936598      10.66890077       4.08576798       20      -2.00000000      -2.00000000      -0.00331990       0.00166922       0.00000079
O        4.10829852       7.00364207       4.08576740       20      -2.00000000      -2.00000000       0.00168100       0.00350034       0.00000072
O        1.76973672       4.78882169       4.08575932       20      -2.00000000      -2.00000000       0.00129502       0.00230248       0.00000123
O        3.13238589       3.09493228       2.29808420       24      -2.00000000      -2.00000000       0.00103846       0.00285344      -0.00082708
O        2.74584959       8.69556526       5.86941172       24      -2.00000000      -2.00000000       0.00193529       0.00253049      -0.00003051
O        2.74613199       8.69583453       2.30223872       24      -2.00000000      -2.00000000       0.00191947       0.00251260       0.00002932
O        3.13203941       3.09461166       5.87324965       24      -2.00000000      -2.00000000       0.00107989       0.00288971       0.00085503
O        5.66022950       8.98168374       5.88289483       24      -2.00000000      -2.00000000      -0.00251119       0.00370030       0.00291730
O        0.17661988       2.81608323       2.31243522       24      -2.00000000      -2.00000000      -0.00360199       0.00330081       0.00230750
O        0.17627768       2.81640503       5.85893105       24      -2.00000000      -2.00000000      -0.00356096       0.00326087      -0.00228668
O        5.66051094       8.98142019       2.28877522       24      -2.00000000      -2.00000000      -0.00252643       0.00371651      -0.00292133
O        2.92602955       5.90254802       1.65379540       32      -2.00000000      -2.00000000      -0.00131385       0.00424503       0.00078783
O        2.92628616       5.90233415       6.51773627       32      -2.00000000      -2.00000000      -0.00133617       0.00426297      -0.00078325
O       -0.00712875       0.01295696       6.52017824       32      -2.00000000      -2.00000000      -0.00160204       0.00280051      -0.00023520
O       -0.00738649       0.01274195       1.65132686       32      -2.00000000      -2.00000000      -0.00157351       0.00282442       0.00024683
O        2.90049310       0.02635125       1.86862758       36      -2.00000000      -2.00000000      -0.00744213       0.00570995      -0.00028445
O        2.90088915       0.02597547       6.30290694       36      -2.00000000      -2.00000000      -0.00748037       0.00574454       0.00029037
O        0.00684562       5.88427363       6.30121586       36      -2.00000000      -2.00000000       0.00201406       0.00026767      -0.00007857
O        0.00644281       5.88389201       1.87028554       36      -2.00000000      -2.00000000       0.00204962       0.00030194       0.00008957
40
Lattice="5.8703846815902905 0.0 0.0 -0.008011639950276659 11.765290932130847 0.0 0.0029557166697316306 6.510508555511065e-05 8.172487350674412" Properties=species:S:1:pos:R:3:spacegroup_kinds:I:1:field_charges:R:1:initial_charges:R:1:forces:R:3 spacegroup="P b a m" unit_cell=conventional occupancy="_JSON {\"0\": {\"Pb\": 1.0}, \"1\": {\"Pb\": 1.0}, \"2\": {\"Pb\": 1.0}, \"3\": {\"Pb\": 1.0}, \"4\": {\"Pb\": 1.0}, \"5\": {\"Pb\": 1.0}, \"6\": {\"Pb\": 1.0}, \"7\": {\"Pb\": 1.0}, \"8\": {\"Zr\": 1.0}, \"9\": {\"Zr\": 1.0}, \"10\": {\"Zr\": 1.0}, \"11\": {\"Zr\": 1.0}, \"12\": {\"Zr\": 1.0}, \"13\": {\"Zr\": 1.0}, \"14\": {\"Zr\": 1.0}, \"15\": {\"Zr\": 1.0}, \"16\": {\"O\": 1.0}, \"17\": {\"O\": 1.0}, \"18\": {\"O\": 1.0}, \"19\": {\"O\": 1.0}, \"20\": {\"O\": 1.0}, \"21\": {\"O\": 1.0}, \"22\": {\"O\": 1.0}, \"23\": {\"O\": 1.0}, \"24\": {\"O\": 1.0}, \"25\": {\"O\": 1.0}, \"26\": {\"O\": 1.0}, \"27\": {\"O\": 1.0}, \"28\": {\"O\": 1.0}, \"29\": {\"O\": 1.0}, \"30\": {\"O\": 1.0}, \"31\": {\"O\": 1.0}, \"32\": {\"O\": 1.0}, \"33\": {\"O\": 1.0}, \"34\": {\"O\": 1.0}, \"35\": {\"O\": 1.0}, \"36\": {\"O\": 1.0}, \"37\": {\"O\": 1.0}, \"38\": {\"O\": 1.0}, \"39\": {\"O\": 1.0}}" neb_image=2 energy=-39205.78172596418 polarization_c_per_m2="_JSON [0.023055890443162474, -0.024025241444201175, -0.005333747651083318]" pbc="T T T"
Pb       1.19784993       1.39494929      -0.03028921        0       2.00000000       2.00000000       0.00040022       0.00079622       0.00532507
Pb       4.70362397      10.26087076       0.02323734        0       2.00000000       2.00000000      -0.00046449       0.00325879       0.00010154
Pb       1.77180801       7.29652265       0.02291133        0       2.00000000       2.00000000      -0.00105876       0.00151964      -0.00060887
Pb       4.11806343       4.38500349      -0.03323086        0       2.00000000       2.00000000      -0.00014696       0.00263358       0.00484276
Pb       1.21490934       1.48483294       4.07137456        4       2.00000000       2.00000000       0.00193382       0.00216000       0.00477451
Pb       4.62650423      10.22584335       4.09150960        4       2.00000000       2.00000000       0.00109729       0.00143470       0.00105101
Pb       1.73782605       7.35404221       4.09165991        4       2.00000000       2.00000000      -0.00174422       0.00154581       0.00124440
Pb       4.19431662       4.32919387       4.07331425        4       2.00000000       2.00000000      -0.00028587       0.00264894       0.00296888
Zr       4.35593340       1.45070744       2.03135073        8       4.00000000       4.00000000       0.00053849       0.00061335       0.00121988
Zr       1.50911372      10.28350092       6.12819280        8       4.00000000       4.00000000       0.00072349       0.00089508       0.00051110
Zr       1.51263989      10.28967466       2.04730975        8       4.00000000       4.00000000       0.00010817       0.00016277       0.00007623
Zr       4.35370084       1.44432917       6.13295082        8       4.00000000       4.00000000       0.00080920       0.00122245       0.00083226
Zr       4.46246895       7.33027763       6.13786364        8       4.00000000       4.00000000      -0.00052316       0.00064719       0.00007428
Zr       1.43330971       4.40053590       2.04107896        8       4.00000000       4.00000000      -0.00037978       0.00041987       0.00059468
Zr       1.43039879       4.40600162       6.12430648        8       4.00000000       4.00000000      -0.00024968       0.00042121       0.00093809
Zr       4.46608858       7.32411749       2.03856594        8       4.00000000       4.00000000      -0.00102262       0.00086655       0.00022527
O        4.51971212       1.87515986      -0.00149132       16      -2.00000000      -2.00000000       0.00301817       0.00089185       0.00014753
O        1.28564032       9.93958139       0.00154065       16      -2.00000000      -2.00000000       0.00088054      -0.00191053      -0.00033419
O        4.25753067       7.74401377       0.00175490       16      -2.00000000      -2.00000000      -0.00112427       0.00001419      -0.00026036
O        1.63044796       4.04103020      -0.00114335       16      -2.00000000      -2.00000000      -0.00183259      -0.00143880      -0.00003530
O        4.67697022       1.11583731       4.08706896       20      -2.00000000      -2.00000000       0.00112217      -0.00228864      -0.00026602
O        1.14256422      10.66618795       4.08634486       20      -2.00000000      -2.00000000       0.00104825       0.00102330      -0.00032271
O        4.11665452       7.01389521       4.08637926       20      -2.00000000      -2.00000000      -0.00176755      -0.00246339      -0.00025286
O        1.77315649       4.79267352       4.08733503       20      -2.00000000      -2.00000000       0.00004221       0.00016403      -0.00031441
O        3.10893478       3.07435355       2.31440152       24      -2.00000000      -2.00000000       0.00383165       0.00293157      -0.00247425
O        2.76457057       8.71456915       5.86807764       24      -2.00000000      -2.00000000      -0.00061538      -0.00096171      -0.00138014
O        2.73209836       8.68308576       2.29261669       24      -2.00000000      -2.00000000      -0.00006795       0.00005684       0.00020300
O        3.15555696       3.11656650       5.88592412       24      -2.00000000      -2.00000000      -0.00312505      -0.00282247      -0.00242851
O        5.66968888       8.97473433       5.88381125       24      -2.00000000      -2.00000000       0.00096179      -0.00090138      -0.00232360
O        0.14313076       2.84909314       2.32861670       24      -2.00000000      -2.00000000       0.00517499      -0.00516294      -0.00083078
O        0.18924488       2.80568278       5.86654232       24      -2.00000000      -2.00000000      -0.00205944       0.00180829      -0.00375113
O        5.63742565       9.00526544       2.27412054       24      -2.00000000      -2.00000000       0.00141130      -0.00203075       0.00114403
O        2.94832199       5.89118983       1.65814108       32      -2.00000000      -2.00000000      -0.00232573       0.00064271      -0.00215781
O        2.91707575       5.91737658       6.51594922       32      -2.00000000      -2.00000000      -0.00010748      -0.00103751       0.00021303
O       -0.02263271       0.00695059       6.52122747       32      -2.00000000      -2.00000000       0.00201993       0.00043260      -0.00003767
O        0.01058520       0.03504130       1.65743639       32      -2.00000000      -2.00000000      -0.00292930      -0.00390642      -0.00322443
O        2.91539244       0.00949424       1.87108729       36      -2.00000000      -2.00000000      -0.00176741       0.00222330      -0.00364379
O        2.86569723       0.05649605       6.30308709       36      -2.00000000      -2.00000000       0.00394783      -0.00265742       0.00053387
O       -0.00292862       5.87006034       6.30408453       36      -2.00000000      -2.00000000      -0.00069050       0.00023070      -0.00096986
O        0.04661211       5.91753585       1.87477849       36      -2.00000000      -2.00000000      -0.00478134      -0.00408359      -0.00140473
40
Lattice="5.874101270674548 0.0 0.0 -0.006021864315917073 11.762929372417462 0.0 0.005914298553538638 0.0003637990580469914 8.177727459942876" Properties=species:S:1:pos:R:3:spacegroup_kinds:I:1:field_charges:R:1:initial_charges:R:1:forces:R:3 spacegroup="P b a m" unit_cell=conventional occupancy="_JSON {\"0\": {\"Pb\": 1.0}, \"1\": {\"Pb\": 1.0}, \"2\": {\"Pb\": 1.0}, \"3\": {\"Pb\": 1.0}, \"4\": {\"Pb\": 1.0}, \"5\": {\"Pb\": 1.0}, \"6\": {\"Pb\": 1.0}, \"7\": {\"Pb\": 1.0}, \"8\": {\"Zr\": 1.0}, \"9\": {\"Zr\": 1.0}, \"10\": {\"Zr\": 1.0}, \"11\": {\"Zr\": 1.0}, \"12\": {\"Zr\": 1.0}, \"13\": {\"Zr\": 1.0}, \"14\": {\"Zr\": 1.0}, \"15\": {\"Zr\": 1.0}, \"16\": {\"O\": 1.0}, \"17\": {\"O\": 1.0}, \"18\": {\"O\": 1.0}, \"19\": {\"O\": 1.0}, \"20\": {\"O\": 1.0}, \"21\": {\"O\": 1.0}, \"22\": {\"O\": 1.0}, \"23\": {\"O\": 1.0}, \"24\": {\"O\": 1.0}, \"25\": {\"O\": 1.0}, \"26\": {\"O\": 1.0}, \"27\": {\"O\": 1.0}, \"28\": {\"O\": 1.0}, \"29\": {\"O\": 1.0}, \"30\": {\"O\": 1.0}, \"31\": {\"O\": 1.0}, \"32\": {\"O\": 1.0}, \"33\": {\"O\": 1.0}, \"34\": {\"O\": 1.0}, \"35\": {\"O\": 1.0}, \"36\": {\"O\": 1.0}, \"37\": {\"O\": 1.0}, \"38\": {\"O\": 1.0}, \"39\": {\"O\": 1.0}}" neb_image=3 energy=-39205.772571596404 polarization_c_per_m2="_JSON [0.02218857809312387, -0.04356644294177193, -0.027000560588819493]" pbc="T T T"
Pb       1.19579694       1.38801517      -0.06610625        0       2.00000000       2.00000000       0.00044856       0.00096467       0.02128409
Pb       4.71179298      10.23521776       0.02019274        0       2.00000000       2.00000000      -0.00165525       0.01699359       0.01472820
Pb       1.78215004       7.28401083       0.02452949        0       2.00000000       2.00000000      -0.00526964       0.00898864       0.00646668
Pb       4.12198505       4.36480816      -0.06567762        0       2.00000000       2.00000000      -0.00161919       0.01665078       0.01636352
Pb       1.20311626       1.46938309       4.04079057        4       2.00000000       2.00000000       0.00732319       0.01637596       0.02945302
Pb       4.62465174      10.21328990       4.08554903        4       2.00000000       2.00000000       0.00455700       0.01021910       0.00922033
Pb       1.75450727       7.34140540       4.08399431        4       2.00000000       2.00000000      -0.01009710       0.00907155       0.01149740
Pb       4.20155519       4.30933314       4.05521141        4       2.00000000       2.00000000      -0.00138537       0.01548044       0.01103151
Zr       4.35536635       1.44578016       2.02414255        8       4.00000000       4.00000000       0.00284841       0.00386723       0.00539456
Zr       1.50887700      10.27528937       6.12812608        8       4.00000000       4.00000000       0.00162212       0.00310577       0.00363112
Zr       1.51503751      10.28618715       2.04787818        8       4.00000000       4.00000000       0.00115924       0.00234167       0.00221219
Zr       4.35311932       1.43560885       6.13123196        8       4.00000000       4.00000000       0.00228346       0.00482402       0.00385081
Zr       4.47295681       7.32394356       6.14095185        8       4.00000000       4.00000000      -0.00316348       0.00506678       0.00153911
Zr       1.43829608       4.39689750       2.03836494        8       4.00000000       4.00000000      -0.00080481       0.00087533       0.00215696
Zr       1.43643261       4.40194138       6.12163987        8       4.00000000       4.00000000      -0.00099206       0.00343505       0.00381126
Zr       4.47828416       7.31661386       2.03783224        8       4.00000000       4.00000000      -0.00399495       0.00345709       0.00231434
O        4.50136545       1.86865291      -0.00239279       16      -2.00000000      -2.00000000       0.01683293       0.00584322      -0.00013935
O        1.28130115       9.95122736       0.00379192       16      -2.00000000      -2.00000000       0.00491689      -0.01127712      -0.00142527
O        4.26995582       7.74231316       0.00344100       16      -2.00000000      -2.00000000      -0.00399098       0.00073270      -0.00072987
O        1.64573385       4.05048962      -0.00073812       16      -2.00000000      -2.00000000      -0.01047374      -0.00948832      -0.00109555
O        4.67337607       1.13181938       4.09159687       20      -2.00000000      -2.00000000       0.00620100      -0.01897207      -0.00163335
O        1.13878212      10.65697058       4.09132587       20      -2.00000000      -2.00000000       0.00371721       0.00523804      -0.00207699
O        4.13459055       7.03045094       4.09085135       20      -2.00000000      -2.00000000      -0.00993944      -0.01423272      -0.00156635
O        1.77683903       4.79074845       4.09224012       20      -2.00000000      -2.00000000       0.00139372       0.00372086      -0.00168907
O        3.08665223       3.05472163       2.33269616       24      -2.00000000      -2.00000000       0.01007945       0.00566341      -0.00619478
O        2.77215334       8.71788520       5.88289479       24      -2.00000000      -2.00000000       0.00000992      -0.00181892      -0.00924448
O        2.73880629       8.68326480       2.29338872       24      -2.00000000      -2.00000000      -0.00867098      -0.00840412      -0.00300893
O        3.18155897       3.13519291       5.90647015       24      -2.00000000      -2.00000000      -0.00886044      -0.00845375      -0.01168456
O        5.66773766       8.98170789       5.90515678       24      -2.00000000      -2.00000000       0.00863016      -0.00827654      -0.01576888
O        0.10886766       2.88416797       2.33595014       24      -2.00000000      -2.00000000       0.01648197      -0.01691504       0.00343839
O        0.20529922       2.79395322       5.89610165       24      -2.00000000      -2.00000000      -0.00292655       0.00263748      -0.02428342
O        5.63502149       9.01651370       2.26838230       24      -2.00000000      -2.00000000      -0.00111708      -0.00246838       0.00124085
O        2.96699192       5.88695646       1.67482605       32      -2.00000000      -2.00000000       0.00004352      -0.00681190      -0.01557893
O        2.92504644       5.92249273       6.51897908       32      -2.00000000      -2.00000000      -0.00314130      -0.00331814       0.00237800
O       -0.03348477       0.00533644       6.52587148       32      -2.00000000      -2.00000000       0.00598162      -0.00063238       0.00077635
O        0.02998684       0.06158524       1.68112211       32      -2.00000000      -2.00000000      -0.01055334      -0.01685191      -0.02289169
O        2.92724190      -0.00340438       1.89793671       36      -2.00000000      -2.00000000       0.00115996       0.00109963      -0.02267918
O        2.84316982       0.07396102       6.30381836       36      -2.00000000      -2.00000000       0.01182998      -0.00653992       0.00022788
O        0.00838442       5.87004985       6.31495279       36      -2.00000000      -2.00000000      -0.00872873      -0.00399132      -0.00459699
O        0.08075532       5.94376670       1.88632418       36      -2.00000000      -2.00000000      -0.01013590      -0.00820048      -0.00672894
40