40
Lattice="5.871972 0.0 0.0 0.0 11.774171 0.0 0.0 0.0 8.178836" Properties=species:S:1:pos:R:3:spacegroup_kinds:I:1:field_charges:R:1:initial_charges:R:1:forces:R:3 spacegroup="P b a m" unit_cell=conventional occupancy="_JSON {\"0\": {\"Pb\": 1.0}, \"1\": {\"Pb\": 1.0}, \"2\": {\"Pb\": 1.0}, \"3\": {\"Pb\": 1.0}, \"4\": {\"Pb\": 1.0}, \"5\": {\"Pb\": 1.0}, \"6\": {\"Pb\": 1.0}, \"7\": {\"Pb\": 1.0}, \"8\": {\"Zr\": 1.0}, \"9\": {\"Zr\": 1.0}, \"10\": {\"Zr\": 1.0}, \"11\": {\"Zr\": 1.0}, \"12\": {\"Zr\": 1.0}, \"13\": {\"Zr\": 1.0}, \"14\": {\"Zr\": 1.0}, \"15\": {\"Zr\": 1.0}, \"16\": {\"O\": 1.0}, \"17\": {\"O\": 1.0}, \"18\": {\"O\": 1.0}, \"19\": {\"O\": 1.0}, \"20\": {\"O\": 1.0}, \"21\": {\"O\": 1.0}, \"22\": {\"O\": 1.0}, \"23\": {\"O\": 1.0}, \"24\": {\"O\": 1.0}, \"25\": {\"O\": 1.0}, \"26\": {\"O\": 1.0}, \"27\": {\"O\": 1.0}, \"28\": {\"O\": 1.0}, \"29\": {\"O\": 1.0}, \"30\": {\"O\": 1.0}, \"31\": {\"O\": 1.0}, \"32\": {\"O\": 1.0}, \"33\": {\"O\": 1.0}, \"34\": {\"O\": 1.0}, \"35\": {\"O\": 1.0}, \"36\": {\"O\": 1.0}, \"37\": {\"O\": 1.0}, \"38\": {\"O\": 1.0}, \"39\": {\"O\": 1.0}}" neb_image=0 energy=-39205.764739708866 polarization_c_per_m2="_JSON [-0.0012611573750599988, 0.0349032942069816, -1.3526432333244794e-15]" pbc="T T T"
Pb       1.17373646       1.45287285      -0.00000000        0       2.00000000       2.00000000       0.01811033      -0.02203254      -0.00000000
Pb       4.69823554      10.32129815      -0.00000000        0       2.00000000       2.00000000       0.02886545      -0.02506414      -0.00000000
Pb       1.76224954       7.33995835      -0.00000000        0       2.00000000       2.00000000       0.02886545      -0.02203254      -0.00000000
Pb       4.10972246       4.43421265      -0.00000000        0       2.00000000       2.00000000       0.01811033      -0.02506414      -0.00000000
Pb       1.22777814       1.51267559       4.08941800        4       2.00000000       2.00000000       0.01833476      -0.01928032       0.00000000
Pb       4.64419386      10.26149541       4.08941800        4       2.00000000       2.00000000       0.02864101      -0.02781637       0.00000000
Pb       1.70820786       7.39976109       4.08941800        4       2.00000000       2.00000000       0.02864101      -0.01928032       0.00000000
Pb       4.16376414       4.37440991       4.08941800        4       2.00000000       2.00000000       0.01833476      -0.02781637       0.00000000
Zr       4.35630128       1.46381254       2.04209901        8       4.00000000       4.00000000       0.04074979      -0.05115421       0.00128299
Zr       1.51567072      10.31035846       6.13673699        8       4.00000000       4.00000000       0.05320176      -0.04303916      -0.00128299
Zr       1.51567072      10.31035846       2.04209901        8       4.00000000       4.00000000       0.05320176      -0.04303916       0.00128299
Zr       4.35630128       1.46381254       6.13673699        8       4.00000000       4.00000000       0.04074979      -0.05115421      -0.00128299
Zr       4.45165672       7.35089804       6.13673699        8       4.00000000       4.00000000       0.05320176      -0.05115421      -0.00128299
Zr       1.42031528       4.42327296       2.04209901        8       4.00000000       4.00000000       0.04074979      -0.04303916       0.00128299
Zr       1.42031528       4.42327296       6.13673699        8       4.00000000       4.00000000       0.04074979      -0.04303916      -0.00128299
Zr       4.45165672       7.35089804       2.04209901        8       4.00000000       4.00000000       0.05320176      -0.05115421       0.00128299
O        4.55672239       1.85661981      -0.00000000       16      -2.00000000      -2.00000000      -0.01967453       0.01834648       0.00000000
O        1.31524961       9.91755119      -0.00000000       16      -2.00000000      -2.00000000      -0.02730124       0.02875020       0.00000000
O        4.25123561       7.74370531      -0.00000000       16      -2.00000000      -2.00000000      -0.02730124       0.01834648       0.00000000
O        1.62073639       4.03046569      -0.00000000       16      -2.00000000      -2.00000000      -0.01967453       0.02875020       0.00000000
O        4.70256932       1.10550087       4.08941800       20      -2.00000000      -2.00000000      -0.01760133       0.03098644      -0.00000000
O        1.16940268      10.66867013       4.08941800       20      -2.00000000      -2.00000000      -0.02937445       0.01611025      -0.00000000
O        4.10538868       6.99258637       4.08941800       20      -2.00000000      -2.00000000      -0.02937445       0.03098644      -0.00000000
O        1.76658332       4.78158463       4.08941800       20      -2.00000000      -2.00000000      -0.01760133       0.01611025      -0.00000000
O        3.12999853       3.08379167       2.30409508       24      -2.00000000      -2.00000000      -0.03345472       0.03894801      -0.00556508
O        2.74197347       8.69037933       5.87474092       24      -2.00000000      -2.00000000      -0.01352106       0.00814867       0.00556508
O        2.74197347       8.69037933       2.30409508       24      -2.00000000      -2.00000000      -0.01352106       0.00814867      -0.00556508
O        3.12999853       3.08379167       5.87474092       24      -2.00000000      -2.00000000      -0.03345472       0.03894801       0.00556508
O        5.67795947       8.97087717       5.87474092       24      -2.00000000      -2.00000000      -0.01352106       0.03894801       0.00556508
O        0.19401253       2.80329383       2.30409508       24      -2.00000000      -2.00000000      -0.03345472       0.00814867      -0.00556508
O        0.19401253       2.80329383       5.87474092       24      -2.00000000      -2.00000000      -0.03345472       0.00814867       0.00556508
O        5.67795947       8.97087717       2.30409508       24      -2.00000000      -2.00000000      -0.01352106       0.03894801      -0.00556508
O        2.93598600       5.88708550       1.65175084       32      -2.00000000      -2.00000000      -0.02348789       0.02354834       0.00096873
O        2.93598600       5.88708550       6.52708516       32      -2.00000000      -2.00000000      -0.02348789       0.02354834      -0.00096873
O        0.00000000       0.00000000       6.52708516       32      -2.00000000      -2.00000000      -0.02348789       0.02354834      -0.00096873
O       -0.00000000       0.00000000       1.65175084       32      -2.00000000      -2.00000000      -0.02348789       0.02354834       0.00096873
O        2.93598600       0.00000000       1.87160782       36      -2.00000000      -2.00000000      -0.02348789       0.02354834       0.00119428
O        2.93598600       0.00000000       6.30722818       36      -2.00000000      -2.00000000      -0.02348789       0.02354834      -0.00119428
O        0.00000000       5.88708550       6.30722818       36      -2.00000000      -2.00000000      -0.02348789       0.02354834      -0.00119428
O        0.00000000       5.88708550       1.87160782       36      -2.00000000      -2.00000000      -0.02348789       0.02354834       0.00119428
40
Lattice="5.869494653396922 0.0 0.0 -0.004809327247292987 11.765901641471244 0.0 -3.210021375306521e-05 -5.212415277041326e-07 8.171532807837576" Properties=species:S:1:pos:R:3:spacegroup_kinds:I:1:field_charges:R:1:initial_charges:R:1:forces:R:3 spacegroup="P b a m" unit_cell=conventional occupancy="_JSON {\"0\": {\"Pb\": 1.0}, \"1\": {\"Pb\": 1.0}, \"2\": {\"Pb\": 1.0}, \"3\": {\"Pb\": 1.0}, \"4\": {\"Pb\": 1.0}, \"5\": {\"Pb\": 1.0}, \"6\": {\"Pb\": 1.0}, \"7\": {\"Pb\": 1.0}, \"8\": {\"Zr\": 1.0}, \"9\": {\"Zr\": 1.0}, \"10\": {\"Zr\": 1.0}, \"11\": {\"Zr\": 1.0}, \"12\": {\"Zr\": 1.0}, \"13\": {\"Zr\": 1.0}, \"14\": {\"Zr\": 1.0}, \"15\": {\"Zr\": 1.0}, \"16\": {\"O\": 1.0}, \"17\": {\"O\": 1.0}, \"18\": {\"O\": 1.0}, \"19\": {\"O\": 1.0}, \"20\": {\"O\": 1.0}, \"21\": {\"O\": 1.0}, \"22\": {\"O\": 1.0}, \"23\": {\"O\": 1.0}, \"24\": {\"O\": 1.0}, \"25\": {\"O\": 1.0}, \"26\": {\"O\": 1.0}, \"27\": {\"O\": 1.0}, \"28\": {\"O\": 1.0}, \"29\": {\"O\": 1.0}, \"30\": {\"O\": 1.0}, \"31\": {\"O\": 1.0}, \"32\": {\"O\": 1.0}, \"33\": {\"O\": 1.0}, \"34\": {\"O\": 1.0}, \"35\": {\"O\": 1.0}, \"36\": {\"O\": 1.0}, \"37\": {\"O\": 1.0}, \"38\": {\"O\": 1.0}, \"39\": {\"O\": 1.0}}" neb_image=1 energy=-39205.782036887555 polarization_c_per_m2="_JSON [0.020282554057970793, -0.007338743650414204, 3.4712144309784e-05]" pbc="T T T"
Pb       1.19185826       1.41309092       0.00032051        0       2.00000000       2.00000000       0.00415219      -0.00840869      -0.00003896
Pb       4.70481939      10.27830573      -0.00028316        0       2.00000000       2.00000000       0.00275538      -0.00775627       0.00001377
Pb       1.76977315       7.30661426      -0.00027391        0       2.00000000       2.00000000       0.00244411      -0.00611074       0.00001537
Pb       4.11710123       4.39859127       0.00035101        0       2.00000000       2.00000000       0.00235421      -0.00705839      -0.00004268
Pb       1.22251069       1.49254261       4.08590191        4       2.00000000       2.00000000      -0.00091911      -0.00414003      -0.00002824
Pb       4.63372944      10.23393354       4.08569237        4       2.00000000       2.00000000      -0.00094512      -0.00441937      -0.00000150
Pb       1.72861340       7.36591320       4.08568922        4       2.00000000       2.00000000       0.00524179      -0.00620997      -0.00000239
Pb       4.18560513       4.34252699       4.08589127        4       2.00000000       2.00000000       0.00549234      -0.00625110      -0.00002165
Zr       4.35578079       1.45171706       2.03683872        8       4.00000000       4.00000000       0.00041050      -0.00239252      -0.00076104
Zr       1.51430049      10.29142601       6.12762065        8       4.00000000       4.00000000       0.00074110      -0.00254849      -0.00078487
Zr       1.51426132      10.29135765       2.04386873        8       4.00000000       4.00000000       0.00074666      -0.00254163       0.00078376
Zr       4.35580979       1.45179001       6.13477105        8       4.00000000       4.00000000       0.00040810      -0.00239871       0.00074670
Zr       4.45931364       7.33200039       6.13419845        8       4.00000000       4.00000000       0.00271994      -0.00296923       0.00064382
Zr       1.42812828       4.40706430       2.04325749        8       4.00000000       4.00000000       0.00222298      -0.00284748       0.00063392
Zr       1.42816466       4.40699726       6.12834607        8       4.00000000       4.00000000       0.00221995      -0.00284444      -0.00064497
Zr       4.45927391       7.33207233       2.03728480        8       4.00000000       4.00000000       0.00272560      -0.00297411      -0.00064257
O        4.53350863       1.87321443       0.00001647       16      -2.00000000      -2.00000000      -0.00447780       0.00385967      -0.00000158
O        1.29447666       9.93175245      -0.00001570       16      -2.00000000      -2.00000000      -0.00351019       0.00458957       0.00000220
O        4.25045295       7.74402419      -0.00001748       16      -2.00000000      -2.00000000       0.00092962       0.00124449       0.00000253
O        1.62333257       4.03705881       0.00001471       16      -2.00000000      -2.00000000       0.00109059       0.00205010      -0.00000037
O        4.68352305       1.11452625       4.08575805       20      -2.00000000      -2.00000000      -0.00360575       0.00212663       0.00000135
O        1.14930386      10.66892984       4.08576812       20      -2.00000000      -2.00000000      -0.00330046       0.00166853       0.00000136
O        4.10832311       7.00366014       4.08576736       20      -2.00000000      -2.00000000       0.00165063       0.00348206       0.00000122
O        1.76974912       4.78881706       4.08575597       20      -2.00000000      -2.00000000       0.00127368       0.00229179       0.00000201
O        3.13249015       3.09505578       2.29800932       24      -2.00000000      -2.00000000       0.00100891       0.00282686      -0.00081427
O        2.74583100       8.69559274       5.86940379       24      -2.00000000      -2.00000000       0.00191440       0.00250573      -0.00002408
O        2.74622070       8.69596447       2.30228977       24      -2.00000000      -2.00000000       0.00189528       0.00248349       0.00002445
O        3.13200275       3.09460605       5.87324250       24      -2.00000000      -2.00000000       0.00106932       0.00287913       0.00085538
O        5.66015002       8.98174775       5.88292970       24      -2.00000000      -2.00000000      -0.00249483       0.00367934       0.00289153
O        0.17665839       2.81603861       2.31241966       24      -2.00000000      -2.00000000      -0.00359046       0.00328378       0.00228199
O        0.17617659       2.81649119       5.85887707       24      -2.00000000      -2.00000000      -0.00353033       0.00322566      -0.00225049
O        5.66053888       8.98138275       2.28879154       24      -2.00000000      -2.00000000      -0.00251343       0.00370018      -0.00289510
O        2.92592900       5.90265987       1.65381521       32      -2.00000000      -2.00000000      -0.00130238       0.00421214       0.00078097
O        2.92628547       5.90236291       6.51771326       32      -2.00000000      -2.00000000      -0.00133240       0.00423603      -0.00077269
O       -0.00712977       0.01300484       6.52017211       32      -2.00000000      -2.00000000      -0.00159932       0.00277782      -0.00023194
O       -0.00748965       0.01270407       1.65131945       32      -2.00000000      -2.00000000      -0.00155896       0.00281184       0.00024976
O        2.90029499       0.02651727       1.86860672       36      -2.00000000      -2.00000000      -0.00737868       0.00566011      -0.00027588
O        2.90084736       0.02599360       6.30292578       36      -2.00000000      -2.00000000      -0.00743214       0.00570805       0.00028620
O        0.00693182       5.88435230       6.30120637       36      -2.00000000      -2.00000000       0.00198761       0.00026034      -0.00007559
O        0.00637105       5.88382031       1.87028002       36      -2.00000000      -2.00000000       0.00203647       0.00030783       0.00009256
40
Lattice="5.870546694278907 0.0 0.0 -0.008139531082850138 11.765288474807772 0.0 0.0029837069149183408 5.481126126868477e-05 8.1725694322659" Properties=species:S:1:pos:R:3:spacegroup_kinds:I:1:field_charges:R:1:initial_charges:R:1:forces:R:3 spacegroup="P b a m" unit_cell=conventional occupancy="_JSON {\"0\": {\"Pb\": 1.0}, \"1\": {\"Pb\": 1.0}, \"2\": {\"Pb\": 1.0}, \"3\": {\"Pb\": 1.0}, \"4\": {\"Pb\": 1.0}, \"5\": {\"Pb\": 1.0}, \"6\": {\"Pb\": 1.0}, \"7\": {\"Pb\": 1.0}, \"8\": {\"Zr\": 1.0}, \"9\": {\"Zr\": 1.0}, \"10\": {\"Zr\": 1.0}, \"11\": {\"Zr\": 1.0}, \"12\": {\"Zr\": 1.0}, \"13\": {\"Zr\": 1.0}, \"14\": {\"Zr\": 1.0}, \"15\": {\"Zr\": 1.0}, \"16\": {\"O\": 1.0}, \"17\": {\"O\": 1.0}, \"18\": {\"O\": 1.0}, \"19\": {\"O\": 1.0}, \"20\": {\"O\": 1.0}, \"21\": {\"O\": 1.0}, \"22\": {\"O\": 1.0}, \"23\": {\"O\": 1.0}, \"24\": {\"O\": 1.0}, \"25\": {\"O\": 1.0}, \"26\": {\"O\": 1.0}, \"27\": {\"O\": 1.0}, \"28\": {\"O\": 1.0}, \"29\": {\"O\": 1.0}, \"30\": {\"O\": 1.0}, \"31\": {\"O\": 1.0}, \"32\": {\"O\": 1.0}, \"33\": {\"O\": 1.0}, \"34\": {\"O\": 1.0}, \"35\": {\"O\": 1.0}, \"36\": {\"O\": 1.0}, \"37\": {\"O\": 1.0}, \"38\": {\"O\": 1.0}, \"39\": {\"O\": 1.0}}" neb_image=2 energy=-39205.78166541797 polarization_c_per_m2="_JSON [0.023054090913245288, -0.024747425674507526, -0.006051280877543488]" pbc="T T T"
Pb       1.19768963       1.39451422      -0.03053651        0       2.00000000       2.00000000       0.00055003       0.00093060       0.00576471
Pb       4.70377996      10.26016237       0.02234333        0       2.00000000       2.00000000      -0.00056047       0.00373854       0.00060212
Pb       1.77213788       7.29612269       0.02200350        0       2.00000000       2.00000000      -0.00129972       0.00170819      -0.00018291
Pb       4.11797745       4.38420332      -0.03340988        0       2.00000000       2.00000000      -0.00010448       0.00314534       0.00525807
Pb       1.21442560       1.48440753       4.07078190        4       2.00000000       2.00000000       0.00223150       0.00248892       0.00542174
Pb       4.62629245      10.22534178       4.09093078        4       2.00000000       2.00000000       0.00121037       0.00176747       0.00141889
Pb       1.73833625       7.35365459       4.09090897        4       2.00000000       2.00000000      -0.00207996       0.00181844       0.00178145
Pb       4.19460430       4.32864384       4.07293834        4       2.00000000       2.00000000      -0.00038569       0.00304409       0.00331431
Zr       4.35577346       1.45047303       2.03121248        8       4.00000000       4.00000000       0.00066726       0.00073458       0.00135589
Zr       1.50893061      10.28333227       6.12802538        8       4.00000000       4.00000000       0.00078466       0.00100228       0.00064518
Zr       1.51245997      10.28953133       2.04723376        8       4.00000000       4.00000000       0.00015186       0.00020972       0.00014439
Zr       4.35366151       1.44411000       6.13294173        8       4.00000000       4.00000000       0.00090489       0.00138365       0.00092741
Zr       4.46279924       7.32995440       6.13779516        8       4.00000000       4.00000000      -0.00065006       0.00082426       0.00015660
Zr       1.43333804       4.40050964       2.04106450        8       4.00000000       4.00000000      -0.00041032       0.00043248       0.00065625
Zr       1.43059868       4.40576274       6.12421704        8       4.00000000       4.00000000      -0.00031925       0.00053446       0.00105904
Zr       4.46636656       7.32396115       2.03837294        8       4.00000000       4.00000000      -0.00115733       0.00097201       0.00034135
O        4.51925616       1.87507081      -0.00146480       16      -2.00000000      -2.00000000       0.00332401       0.00098964       0.00014353
O        1.28519786       9.93995787       0.00155578       16      -2.00000000      -2.00000000       0.00108201      -0.00220253      -0.00036120
O        4.25790728       7.74397266       0.00174052       16      -2.00000000      -2.00000000      -0.00127781       0.00006694      -0.00026467
O        1.63097214       4.04134092      -0.00107825       16      -2.00000000      -2.00000000      -0.00212970      -0.00169166      -0.00007147
O        4.67680282       1.11627950       4.08716938       20      -2.00000000      -2.00000000       0.00131837      -0.00272306      -0.00031584
O        1.14219052      10.66607670       4.08647314       20      -2.00000000      -2.00000000       0.00119377       0.00115938      -0.00039084
O        4.11706823       7.01439316       4.08649000       20      -2.00000000      -2.00000000      -0.00201348      -0.00288441      -0.00030535
O        1.77338743       4.79255484       4.08745767       20      -2.00000000      -2.00000000      -0.00003899       0.00028674      -0.00038042
O        3.10899912       3.07455918       2.31448535       24      -2.00000000      -2.00000000       0.00397803       0.00294574      -0.00258160
O        2.76398266       8.71410330       5.86877924       24      -2.00000000      -2.00000000      -0.00038054      -0.00079620      -0.00179195
O        2.73302509       8.68402432       2.29296939       24      -2.00000000      -2.00000000      -0.00051811      -0.00041125       0.00007039
O        3.15601308       3.11682242       5.88638162       24      -2.00000000      -2.00000000      -0.00346324      -0.00308411      -0.00281986
O        5.66881451       8.97558253       5.88461946       24      -2.00000000      -2.00000000       0.00142055      -0.00130106      -0.00283442
O        0.14267565       2.84951410       2.32868438       24      -2.00000000      -2.00000000       0.00555627      -0.00555036      -0.00086928
O        0.18926813       2.80575072       5.86708949       24      -2.00000000      -2.00000000      -0.00220179       0.00189628      -0.00426055
O        5.63797509       9.00498592       2.27436039       24      -2.00000000      -2.00000000       0.00121694      -0.00195880       0.00108415
O        2.94812804       5.89173748       1.65871205       32      -2.00000000      -2.00000000      -0.00217803       0.00029315      -0.00264198
O        2.91773289       5.91718928       6.51608467       32      -2.00000000      -2.00000000      -0.00033209      -0.00103097       0.00020875
O       -0.02267458       0.00720552       6.52138469       32      -2.00000000      -2.00000000       0.00214365       0.00035856      -0.00005712
O        0.01027203       0.03519903       1.65794976       32      -2.00000000      -2.00000000      -0.00296346      -0.00418078      -0.00372214
O        2.91451565       0.01023899       1.87170241       36      -2.00000000      -2.00000000      -0.00144903       0.00198472      -0.00417724
O        2.86549986       0.05648009       6.30323055       36      -2.00000000      -2.00000000       0.00421742      -0.00274682       0.00048192
O       -0.00183092       5.87081580       6.30427315       36      -2.00000000      -2.00000000      -0.00111345       0.00000031      -0.00106229
O        0.04671793       5.91752907       1.87523715       36      -2.00000000      -2.00000000      -0.00492462      -0.00415453      -0.00174503
40
Lattice="5.874625287713515 0.0 0.0 -0.006942574346663233 11.763097181977157 0.0 0.005818735538891425 0.00043550762625834305 8.17807835932373" Properties=species:S:1:pos:R:3:spacegroup_kinds:I:1:field_charges:R:1:initial_charges:R:1:forces:R:3 spacegroup="P b a m" unit_cell=conventional occupancy="_JSON {\"0\": {\"Pb\": 1.0}, \"1\": {\"Pb\": 1.0}, \"2\": {\"Pb\": 1.0}, \"3\": {\"Pb\": 1.0}, \"4\": {\"Pb\": 1.0}, \"5\": {\"Pb\": 1.0}, \"6\": {\"Pb\": 1.0}, \"7\": {\"Pb\": 1.0}, \"8\": {\"Zr\": 1.0}, \"9\": {\"Zr\": 1.0}, \"10\": {\"Zr\": 1.0}, \"11\": {\"Zr\": 1.0}, \"12\": {\"Zr\": 1.0}, \"13\": {\"Zr\": 1.0}, \"14\": {\"Zr\": 1.0}, \"15\": {\"Zr\": 1.0}, \"16\": {\"O\": 1.0}, \"17\": {\"O\": 1.0}, \"18\": {\"O\": 1.0}, \"19\": {\"O\": 1.0}, \"20\": {\"O\": 1.0}, \"21\": {\"O\": 1.0}, \"22\": {\"O\": 1.0}, \"23\": {\"O\": 1.0}, \"24\": {\"O\": 1.0}, \"25\": {\"O\": 1.0}, \"26\": {\"O\": 1.0}, \"27\": {\"O\": 1.0}, \"28\": {\"O\": 1.0}, \"29\": {\"O\": 1.0}, \"30\": {\"O\": 1.0}, \"31\": {\"O\": 1.0}, \"32\": {\"O\": 1.0}, \"33\": {\"O\": 1.0}, \"34\": {\"O\": 1.0}, \"35\": {\"O\": 1.0}, \"36\": {\"O\": 1.0}, \"37\": {\"O\": 1.0}, \"38\": {\"O\": 1.0}, \"39\": {\"O\": 1.0}}" neb_image=3 energy=-39205.77167144564 polarization_c_per_m2="_JSON [0.022377769461255363, -0.04533852442242077, -0.029440286603523172]" pbc="T T T"
Pb       1.19477533       1.38775386      -0.06598982        0       2.00000000       2.00000000       0.00095553       0.00080326       0.02242573
Pb       4.71183448      10.23398717       0.01620037        0       2.00000000       2.00000000      -0.00158843       0.01798107       0.01643930
Pb       1.78291459       7.28337722       0.02060402        0       2.00000000       2.00000000      -0.00601516       0.00865106       0.00795030
Pb       4.12149039       4.36208132      -0.06561665        0       2.00000000       2.00000000      -0.00180021       0.01785551       0.01782809
Pb       1.20212882       1.46807742       4.03903703        4       2.00000000       2.00000000       0.00763978       0.01735682       0.03150633
Pb       4.62411954      10.21151338       4.08342099        4       2.00000000       2.00000000       0.00448995       0.01115499       0.01021505
Pb       1.75572962       7.34056477       4.08070617        4       2.00000000       2.00000000      -0.01064668       0.01016523       0.01376408
Pb       4.20228838       4.30838899       4.05458762        4       2.00000000       2.00000000      -0.00165637       0.01641430       0.01178820
Zr       4.35493021       1.44528195       2.02400720        8       4.00000000       4.00000000       0.00304764       0.00404436       0.00564789
Zr       1.50809394      10.27528551       6.12765196        8       4.00000000       4.00000000       0.00159808       0.00332260       0.00392629
Zr       1.51405793      10.28612010       2.04744991        8       4.00000000       4.00000000       0.00124205       0.00239035       0.00250427
Zr       4.35309328       1.43524856       6.13125720        8       4.00000000       4.00000000       0.00238507       0.00517111       0.00414882
Zr       4.47337152       7.32303216       6.14063236        8       4.00000000       4.00000000      -0.00333668       0.00543026       0.00189741
Zr       1.43802787       4.39713247       2.03839166        8       4.00000000       4.00000000      -0.00092702       0.00084674       0.00240943
Zr       1.43656989       4.40138711       6.12155278        8       4.00000000       4.00000000      -0.00106213       0.00356259       0.00406403
Zr       4.47846938       7.31642024       2.03709637        8       4.00000000       4.00000000      -0.00421984       0.00366282       0.00262060
O        4.50114388       1.86850456      -0.00225820       16      -2.00000000      -2.00000000       0.01699495       0.00617662      -0.00019528
O        1.27962830       9.95240640       0.00377480       16      -2.00000000      -2.00000000       0.00555012      -0.01196392      -0.00151599
O        4.27019266       7.74196006       0.00329378       16      -2.00000000      -2.00000000      -0.00435143       0.00124259      -0.00075486
O        1.64667668       4.05170096      -0.00046500       16      -2.00000000      -2.00000000      -0.01104191      -0.01024588      -0.00124777
O        4.67284000       1.13416556       4.09199846       20      -2.00000000      -2.00000000       0.00675067      -0.02048627      -0.00179391
O        1.13755229      10.65716197       4.09182786       20      -2.00000000      -2.00000000       0.00362817       0.00580334      -0.00226876
O        4.13515892       7.03187014       4.09128065       20      -2.00000000      -2.00000000      -0.01034612      -0.01586817      -0.00172330
O        1.77737152       4.78954985       4.09273675       20      -2.00000000      -2.00000000       0.00130339       0.00427861      -0.00190088
O        3.08863312       3.05721979       2.33145155       24      -2.00000000      -2.00000000       0.01017280       0.00552413      -0.00628301
O        2.76974162       8.71654633       5.88510824       24      -2.00000000      -2.00000000       0.00057721      -0.00132035      -0.01110502
O        2.74253522       8.68783904       2.29520307       24      -2.00000000      -2.00000000      -0.00977206      -0.00966056      -0.00282592
O        3.18271864       3.13603896       5.90873871       24      -2.00000000      -2.00000000      -0.00938989      -0.00882721      -0.01282371
O        5.66482372       8.98406372       5.90754250       24      -2.00000000      -2.00000000       0.00950637      -0.00900084      -0.01699064
O        0.10957320       2.88332054       2.33535219       24      -2.00000000      -2.00000000       0.01686730      -0.01734119       0.00348012
O        0.20534927       2.79398835       5.89833725       24      -2.00000000      -2.00000000      -0.00300752       0.00261928      -0.02597487
O        5.63787683       9.01416232       2.27016084       24      -2.00000000      -2.00000000      -0.00185952      -0.00197610       0.00083474
O        2.96343178       5.89080490       1.67740119       32      -2.00000000      -2.00000000       0.00121249      -0.00828823      -0.01769614
O        2.92592947       5.92239223       6.51932970       32      -2.00000000      -2.00000000      -0.00363244      -0.00317325       0.00245626
O       -0.03376956       0.00579776       6.52638027       32      -2.00000000      -2.00000000       0.00621690      -0.00069705       0.00091800
O        0.02763966       0.06066750       1.68293663       32      -2.00000000      -2.00000000      -0.01058214      -0.01732642      -0.02476711
O        2.92314008       0.00064405       1.89982560       36      -2.00000000      -2.00000000       0.00200228       0.00029974      -0.02398035
O        2.84332746       0.07347715       6.30479970       36      -2.00000000      -2.00000000       0.01214501      -0.00654926      -0.00016706
O        0.01033786       5.87169558       6.31517002       36      -2.00000000      -2.00000000      -0.00934692      -0.00430382      -0.00452704
O        0.07764081       5.94108699       1.88833772       36      -2.00000000      -2.00000000      -0.00970326      -0.00772887      -0.00828332
40