40
Lattice="5.871972 0.0 0.0 0.0 11.774171 0.0 0.0 0.0 8.178836" Properties=species:S:1:pos:R:3:spacegroup_kinds:I:1:field_charges:R:1:initial_charges:R:1:forces:R:3 spacegroup="P b a m" unit_cell=conventional occupancy="_JSON {\"0\": {\"Pb\": 1.0}, \"1\": {\"Pb\": 1.0}, \"2\": {\"Pb\": 1.0}, \"3\": {\"Pb\": 1.0}, \"4\": {\"Pb\": 1.0}, \"5\": {\"Pb\": 1.0}, \"6\": {\"Pb\": 1.0}, \"7\": {\"Pb\": 1.0}, \"8\": {\"Zr\": 1.0}, \"9\": {\"Zr\": 1.0}, \"10\": {\"Zr\": 1.0}, \"11\": {\"Zr\": 1.0}, \"12\": {\"Zr\": 1.0}, \"13\": {\"Zr\": 1.0}, \"14\": {\"Zr\": 1.0}, \"15\": {\"Zr\": 1.0}, \"16\": {\"O\": 1.0}, \"17\": {\"O\": 1.0}, \"18\": {\"O\": 1.0}, \"19\": {\"O\": 1.0}, \"20\": {\"O\": 1.0}, \"21\": {\"O\": 1.0}, \"22\": {\"O\": 1.0}, \"23\": {\"O\": 1.0}, \"24\": {\"O\": 1.0}, \"25\": {\"O\": 1.0}, \"26\": {\"O\": 1.0}, \"27\": {\"O\": 1.0}, \"28\": {\"O\": 1.0}, \"29\": {\"O\": 1.0}, \"30\": {\"O\": 1.0}, \"31\": {\"O\": 1.0}, \"32\": {\"O\": 1.0}, \"33\": {\"O\": 1.0}, \"34\": {\"O\": 1.0}, \"35\": {\"O\": 1.0}, \"36\": {\"O\": 1.0}, \"37\": {\"O\": 1.0}, \"38\": {\"O\": 1.0}, \"39\": {\"O\": 1.0}}" neb_image=0 energy=-39205.764739708866 polarization_c_per_m2="_JSON [-0.0012611573750599988, 0.0349032942069816, -1.3526432333244794e-15]" pbc="T T T"
Pb       1.17373646       1.45287285      -0.00000000        0       2.00000000       2.00000000       0.01811033      -0.02203254      -0.00000000
Pb       4.69823554      10.32129815      -0.00000000        0       2.00000000       2.00000000       0.02886545      -0.02506414      -0.00000000
Pb       1.76224954       7.33995835      -0.00000000        0       2.00000000       2.00000000       0.02886545      -0.02203254      -0.00000000
Pb       4.10972246       4.43421265      -0.00000000        0       2.00000000       2.00000000       0.01811033      -0.02506414      -0.00000000
Pb       1.22777814       1.51267559       4.08941800        4       2.00000000       2.00000000       0.01833476      -0.01928032       0.00000000
Pb       4.64419386      10.26149541       4.08941800        4       2.00000000       2.00000000       0.02864101      -0.02781637       0.00000000
Pb       1.70820786       7.39976109       4.08941800        4       2.00000000       2.00000000       0.02864101      -0.01928032       0.00000000
Pb       4.16376414       4.37440991       4.08941800        4       2.00000000       2.00000000       0.01833476      -0.02781637       0.00000000
Zr       4.35630128       1.46381254       2.04209901        8       4.00000000       4.00000000       0.04074979      -0.05115421       0.00128299
Zr       1.51567072      10.31035846       6.13673699        8       4.00000000       4.00000000       0.05320176      -0.04303916      -0.00128299
Zr       1.51567072      10.31035846       2.04209901        8       4.00000000       4.00000000       0.05320176      -0.04303916       0.00128299
Zr       4.35630128       1.46381254       6.13673699        8       4.00000000       4.00000000       0.04074979      -0.05115421      -0.00128299
Zr       4.45165672       7.35089804       6.13673699        8       4.00000000       4.00000000       0.05320176      -0.05115421      -0.00128299
Zr       1.42031528       4.42327296       2.04209901        8       4.00000000       4.00000000       0.04074979      -0.04303916       0.00128299
Zr       1.42031528       4.42327296       6.13673699        8       4.00000000       4.00000000       0.04074979      -0.04303916      -0.00128299
Zr       4.45165672       7.35089804       2.04209901        8       4.00000000       4.00000000       0.05320176      -0.05115421       0.00128299
O        4.55672239       1.85661981      -0.00000000       16      -2.00000000      -2.00000000      -0.01967453       0.01834648       0.00000000
O        1.31524961       9.91755119      -0.00000000       16      -2.00000000      -2.00000000      -0.02730124       0.02875020       0.00000000
O        4.25123561       7.74370531      -0.00000000       16      -2.00000000      -2.00000000      -0.02730124       0.01834648       0.00000000
O        1.62073639       4.03046569      -0.00000000       16      -2.00000000      -2.00000000      -0.01967453       0.02875020       0.00000000
O        4.70256932       1.10550087       4.08941800       20      -2.00000000      -2.00000000      -0.01760133       0.03098644      -0.00000000
O        1.16940268      10.66867013       4.08941800       20      -2.00000000      -2.00000000      -0.02937445       0.01611025      -0.00000000
O        4.10538868       6.99258637       4.08941800       20      -2.00000000      -2.00000000      -0.02937445       0.03098644      -0.00000000
O        1.76658332       4.78158463       4.08941800       20      -2.00000000      -2.00000000      -0.01760133       0.01611025      -0.00000000
O        3.12999853       3.08379167       2.30409508       24      -2.00000000      -2.00000000      -0.03345472       0.03894801      -0.00556508
O        2.74197347       8.69037933       5.87474092       24      -2.00000000      -2.00000000      -0.01352106       0.00814867       0.00556508
O        2.74197347       8.69037933       2.30409508       24      -2.00000000      -2.00000000      -0.01352106       0.00814867      -0.00556508
O        3.12999853       3.08379167       5.87474092       24      -2.00000000      -2.00000000      -0.03345472       0.03894801       0.00556508
O        5.67795947       8.97087717       5.87474092       24      -2.00000000      -2.00000000      -0.01352106       0.03894801       0.00556508
O        0.19401253       2.80329383       2.30409508       24      -2.00000000      -2.00000000      -0.03345472       0.00814867      -0.00556508
O        0.19401253       2.80329383       5.87474092       24      -2.00000000      -2.00000000      -0.03345472       0.00814867       0.00556508
O        5.67795947       8.97087717       2.30409508       24      -2.00000000      -2.00000000      -0.01352106       0.03894801      -0.00556508
O        2.93598600       5.88708550       1.65175084       32      -2.00000000      -2.00000000      -0.02348789       0.02354834       0.00096873
O        2.93598600       5.88708550       6.52708516       32      -2.00000000      -2.00000000      -0.02348789       0.02354834      -0.00096873
O        0.00000000       0.00000000       6.52708516       32      -2.00000000      -2.00000000      -0.02348789       0.02354834      -0.00096873
O       -0.00000000       0.00000000       1.65175084       32      -2.00000000      -2.00000000      -0.02348789       0.02354834       0.00096873
O        2.93598600       0.00000000       1.87160782       36      -2.00000000      -2.00000000      -0.02348789       0.02354834       0.00119428
O        2.93598600       0.00000000       6.30722818       36      -2.00000000      -2.00000000      -0.02348789       0.02354834      -0.00119428
O        0.00000000       5.88708550       6.30722818       36      -2.00000000      -2.00000000      -0.02348789       0.02354834      -0.00119428
O        0.00000000       5.88708550       1.87160782       36      -2.00000000      -2.00000000      -0.02348789       0.02354834       0.00119428
40
Lattice="5.869486691852826 0.0 0.0 -0.0046529783721326635 11.765882656080692 0.0 4.108442904319945e-05 1.1649707558997459e-06 8.1715461990853" Properties=species:S:1:pos:R:3:spacegroup_kinds:I:1:field_charges:R:1:initial_charges:R:1:forces:R:3 spacegroup="P b a m" unit_cell=conventional occupancy="_JSON {\"0\": {\"Pb\": 1.0}, \"1\": {\"Pb\": 1.0}, \"2\": {\"Pb\": 1.0}, \"3\": {\"Pb\": 1.0}, \"4\": {\"Pb\": 1.0}, \"5\": {\"Pb\": 1.0}, \"6\": {\"Pb\": 1.0}, \"7\": {\"Pb\": 1.0}, \"8\": {\"Zr\": 1.0}, \"9\": {\"Zr\": 1.0}, \"10\": {\"Zr\": 1.0}, \"11\": {\"Zr\": 1.0}, \"12\": {\"Zr\": 1.0}, \"13\": {\"Zr\": 1.0}, \"14\": {\"Zr\": 1.0}, \"15\": {\"Zr\": 1.0}, \"16\": {\"O\": 1.0}, \"17\": {\"O\": 1.0}, \"18\": {\"O\": 1.0}, \"19\": {\"O\": 1.0}, \"20\": {\"O\": 1.0}, \"21\": {\"O\": 1.0}, \"22\": {\"O\": 1.0}, \"23\": {\"O\": 1.0}, \"24\": {\"O\": 1.0}, \"25\": {\"O\": 1.0}, \"26\": {\"O\": 1.0}, \"27\": {\"O\": 1.0}, \"28\": {\"O\": 1.0}, \"29\": {\"O\": 1.0}, \"30\": {\"O\": 1.0}, \"31\": {\"O\": 1.0}, \"32\": {\"O\": 1.0}, \"33\": {\"O\": 1.0}, \"34\": {\"O\": 1.0}, \"35\": {\"O\": 1.0}, \"36\": {\"O\": 1.0}, \"37\": {\"O\": 1.0}, \"38\": {\"O\": 1.0}, \"39\": {\"O\": 1.0}}" neb_image=1 energy=-39205.78196775338 polarization_c_per_m2="_JSON [0.020161623365909234, -0.006849561849970638, -1.633526953702814e-05]" pbc="T T T"
Pb       1.19168391       1.41357192      -0.00039866        0       2.00000000       2.00000000       0.00431090      -0.00873329       0.00003618
Pb       4.70493988      10.27860116       0.00039386        0       2.00000000       2.00000000       0.00285013      -0.00803581      -0.00003875
Pb       1.76983288       7.30702326       0.00038192        0       2.00000000       2.00000000       0.00252878      -0.00634392      -0.00003763
Pb       4.11715121       4.39913705      -0.00043689        0       2.00000000       2.00000000       0.00243531      -0.00732564       0.00003949
Pb       1.22271126       1.49280932       4.08562716        4       2.00000000       2.00000000      -0.00095606      -0.00429077       0.00001110
Pb       4.63402225      10.23426992       4.08589101        4       2.00000000       2.00000000      -0.00098256      -0.00458830      -0.00001242
Pb       1.72839025       7.36615683       4.08589741        4       2.00000000       2.00000000       0.00543869      -0.00643881      -0.00001275
Pb       4.18537075       4.34274501       4.08563393        4       2.00000000       2.00000000       0.00569891      -0.00647783       0.00001120
Zr       4.35593268       1.45188566       2.03679024        8       4.00000000       4.00000000       0.00041704      -0.00248514      -0.00077871
Zr       1.51448287      10.29143857       6.12772770        8       4.00000000       4.00000000       0.00077060      -0.00263457      -0.00081742
Zr       1.51453240      10.29152712       2.04388556        8       4.00000000       4.00000000       0.00076404      -0.00264307       0.00081021
Zr       4.35588958       1.45179064       6.13466885        8       4.00000000       4.00000000       0.00042348      -0.00247601       0.00078542
Zr       4.45927109       7.33222519       6.13421859        8       4.00000000       4.00000000       0.00282673      -0.00308517       0.00066487
Zr       1.42817843       4.40710383       2.04314193        8       4.00000000       4.00000000       0.00229862      -0.00294623       0.00066708
Zr       1.42812528       4.40719728       6.12832302        8       4.00000000       4.00000000       0.00230597      -0.00295549      -0.00066011
Zr       4.45932342       7.33212812       2.03740190        8       4.00000000       4.00000000       0.00281983      -0.00307566      -0.00067196
O        4.53384398       1.87307195      -0.00002155       16      -2.00000000      -2.00000000      -0.00464214       0.00400641       0.00000185
O        1.29479698       9.93155363       0.00001920       16      -2.00000000      -2.00000000      -0.00364559       0.00475154      -0.00000181
O        4.25036203       7.74399302       0.00002189       16      -2.00000000      -2.00000000       0.00097098       0.00129074      -0.00000183
O        1.62316931       4.03694884      -0.00002046       16      -2.00000000      -2.00000000       0.00113849       0.00212108       0.00000202
O        4.68380914       1.11437892       4.08578220       20      -2.00000000      -2.00000000      -0.00374292       0.00219756      -0.00000079
O        1.14960549      10.66874773       4.08576730       20      -2.00000000      -2.00000000      -0.00341901       0.00173903       0.00000085
O        4.10822108       7.00360025       4.08576808       20      -2.00000000      -2.00000000       0.00171482       0.00360086       0.00000089
O        1.76970382       4.78886449       4.08578359       20      -2.00000000      -2.00000000       0.00132753       0.00237484      -0.00000079
O        3.13176699       3.09423783       2.29850332       24      -2.00000000      -2.00000000       0.00111212       0.00299018      -0.00088344
O        2.74610810       8.69564795       5.86936207       24      -2.00000000      -2.00000000       0.00195965       0.00257156      -0.00001964
O        2.74555633       8.69512577       2.30193939       24      -2.00000000      -2.00000000       0.00201225       0.00262212       0.00004590
O        3.13236188       3.09479761       5.87337860       24      -2.00000000      -2.00000000       0.00106106       0.00293963       0.00085470
O        5.66070907       8.98129538       5.88271489       24      -2.00000000      -2.00000000      -0.00261492       0.00384376       0.00300192
O        0.17624726       2.81649263       2.31266838       24      -2.00000000      -2.00000000      -0.00366293       0.00334664       0.00234286
O        0.17683334       2.81593646       5.85915947       24      -2.00000000      -2.00000000      -0.00371328       0.00339582      -0.00236825
O        5.66016014       8.98180298       2.28855361       24      -2.00000000      -2.00000000      -0.00256255       0.00379387      -0.00297391
O        2.92662056       5.90195506       1.65370394       32      -2.00000000      -2.00000000      -0.00139240       0.00440411       0.00080545
O        2.92614227       5.90235362       6.51782586       32      -2.00000000      -2.00000000      -0.00134465       0.00436661      -0.00080321
O       -0.00721172       0.01268470       6.52021570       32      -2.00000000      -2.00000000      -0.00162585       0.00290710      -0.00024316
O       -0.00674460       0.01307164       1.65135957       32      -2.00000000      -2.00000000      -0.00167117       0.00287168       0.00024304
O        2.90159572       0.02540615       1.86868372       36      -2.00000000      -2.00000000      -0.00773009       0.00593994      -0.00030702
O        2.90086984       0.02609530       6.30284177       36      -2.00000000      -2.00000000      -0.00765983       0.00587539       0.00030935
O        0.00627690       5.88376662       6.30126850       36      -2.00000000      -2.00000000       0.00212645       0.00032563      -0.00008448
O        0.00702211       5.88446705       1.87031261       36      -2.00000000      -2.00000000       0.00205356       0.00025960       0.00008368
40
Lattice="5.870008417222766 0.0 0.0 -0.007179040637066423 11.765224339518339 0.0 0.00282380516317074 0.0001327936617951559 8.172386974645924" Properties=species:S:1:pos:R:3:spacegroup_kinds:I:1:field_charges:R:1:initial_charges:R:1:forces:R:3 spacegroup="P b a m" unit_cell=conventional occupancy="_JSON {\"0\": {\"Pb\": 1.0}, \"1\": {\"Pb\": 1.0}, \"2\": {\"Pb\": 1.0}, \"3\": {\"Pb\": 1.0}, \"4\": {\"Pb\": 1.0}, \"5\": {\"Pb\": 1.0}, \"6\": {\"Pb\": 1.0}, \"7\": {\"Pb\": 1.0}, \"8\": {\"Zr\": 1.0}, \"9\": {\"Zr\": 1.0}, \"10\": {\"Zr\": 1.0}, \"11\": {\"Zr\": 1.0}, \"12\": {\"Zr\": 1.0}, \"13\": {\"Zr\": 1.0}, \"14\": {\"Zr\": 1.0}, \"15\": {\"Zr\": 1.0}, \"16\": {\"O\": 1.0}, \"17\": {\"O\": 1.0}, \"18\": {\"O\": 1.0}, \"19\": {\"O\": 1.0}, \"20\": {\"O\": 1.0}, \"21\": {\"O\": 1.0}, \"22\": {\"O\": 1.0}, \"23\": {\"O\": 1.0}, \"24\": {\"O\": 1.0}, \"25\": {\"O\": 1.0}, \"26\": {\"O\": 1.0}, \"27\": {\"O\": 1.0}, \"28\": {\"O\": 1.0}, \"29\": {\"O\": 1.0}, \"30\": {\"O\": 1.0}, \"31\": {\"O\": 1.0}, \"32\": {\"O\": 1.0}, \"33\": {\"O\": 1.0}, \"34\": {\"O\": 1.0}, \"35\": {\"O\": 1.0}, \"36\": {\"O\": 1.0}, \"37\": {\"O\": 1.0}, \"38\": {\"O\": 1.0}, \"39\": {\"O\": 1.0}}" neb_image=2 energy=-39205.781836915354 polarization_c_per_m2="_JSON [0.023201541405551657, -0.02205168140412807, -0.0033970741817574467]" pbc="T T T"
Pb       1.19743168       1.39823098      -0.03034798        0       2.00000000       2.00000000       0.00000394       0.00044419       0.00428872
Pb       4.70382254      10.26491990       0.02665310        0       2.00000000       2.00000000      -0.00038231       0.00178191      -0.00154971
Pb       1.77043111       7.29580078       0.02579584        0       2.00000000       2.00000000      -0.00026631       0.00112200      -0.00170253
Pb       4.11806823       4.38406128      -0.03328269        0       2.00000000       2.00000000      -0.00021452       0.00156531       0.00395972
Pb       1.21759163       1.48485994       4.07304032        4       2.00000000       2.00000000       0.00097345       0.00120466       0.00276494
Pb       4.62838430      10.22502390       4.09318095        4       2.00000000       2.00000000       0.00075719       0.00074677       0.00017988
Pb       1.73830539       7.35616155       4.09372093        4       2.00000000       2.00000000      -0.00108197       0.00081793       0.00006930
Pb       4.19452549       4.33296618       4.07415024        4       2.00000000       2.00000000      -0.00012285       0.00126124       0.00218592
Zr       4.35659466       1.45180078       2.03208508        8       4.00000000       4.00000000       0.00009466       0.00019199       0.00080668
Zr       1.51008054      10.28424118       6.12882767        8       4.00000000       4.00000000       0.00052910       0.00061571       0.00018042
Zr       1.51384693      10.29058702       2.04754865        8       4.00000000       4.00000000      -0.00014363      -0.00011147      -0.00014782
Zr       4.35382059       1.44503951       6.13265941        8       4.00000000       4.00000000       0.00052680       0.00081801       0.00062994
Zr       4.46158158       7.33083617       6.13851677        8       4.00000000       4.00000000      -0.00008801       0.00012984      -0.00018086
Zr       1.43328513       4.40025626       2.04119813        8       4.00000000       4.00000000      -0.00024472       0.00047309       0.00046812
Zr       1.42981115       4.40656196       6.12449807        8       4.00000000       4.00000000      -0.00002215       0.00006322       0.00064490
Zr       4.46543236       7.32413006       2.03885053        8       4.00000000       4.00000000      -0.00057840       0.00060706      -0.00002618
O        4.52127318       1.87561047      -0.00166082       16      -2.00000000      -2.00000000       0.00209394       0.00048891       0.00018676
O        1.28818728       9.93833806       0.00145329       16      -2.00000000      -2.00000000      -0.00013308      -0.00112985      -0.00024614
O        4.25563592       7.74375664       0.00176161       16      -2.00000000      -2.00000000      -0.00023263      -0.00004475      -0.00025026
O        1.62919344       4.04087161      -0.00138486       16      -2.00000000      -2.00000000      -0.00102434      -0.00086794       0.00007844
O        4.67779716       1.11761427       4.08695084       20      -2.00000000      -2.00000000       0.00046641      -0.00113530      -0.00015644
O        1.14424657      10.66931955       4.08607678       20      -2.00000000      -2.00000000       0.00074123       0.00042772      -0.00014025
O        4.11635637       7.00929648       4.08621046       20      -2.00000000      -2.00000000      -0.00126369      -0.00099173      -0.00015057
O        1.77298365       4.78957716       4.08716624       20      -2.00000000      -2.00000000       0.00031916       0.00021193      -0.00016928
O        3.11263871       3.07755949       2.31061824       24      -2.00000000      -2.00000000       0.00315073       0.00260883      -0.00190032
O        2.77078502       8.72030344       5.86209635       24      -2.00000000      -2.00000000      -0.00160383      -0.00178364       0.00028832
O        2.73386202       8.68467753       2.29569291       24      -2.00000000      -2.00000000       0.00060329       0.00071955      -0.00010345
O        3.15899687       3.12033103       5.88877070       24      -2.00000000      -2.00000000      -0.00277051      -0.00261813      -0.00177391
O        5.67667850       8.96809088       5.87875930       24      -2.00000000      -2.00000000      -0.00062599       0.00054068      -0.00094492
O        0.14803784       2.84415010       2.32549824       24      -2.00000000      -2.00000000       0.00395527      -0.00381971      -0.00077374
O        0.19382607       2.80080975       5.86889654       24      -2.00000000      -2.00000000      -0.00218017       0.00204375      -0.00259356
O        5.63991104       9.00248025       2.27579864       24      -2.00000000      -2.00000000       0.00152596      -0.00187660       0.00136027
O        2.94408568       5.89397551       1.65796232       32      -2.00000000      -2.00000000      -0.00190515       0.00091290      -0.00130817
O        2.91003639       5.92245449       6.51447371       32      -2.00000000      -2.00000000       0.00118367      -0.00156551       0.00042320
O       -0.02691548       0.00241004       6.52154941       32      -2.00000000      -2.00000000       0.00190892       0.00085676      -0.00018133
O        0.00763938       0.03118421       1.65531250       32      -2.00000000      -2.00000000      -0.00250317      -0.00276743      -0.00150936
O        2.91474504       0.01111353       1.86954635       36      -2.00000000      -2.00000000      -0.00251949       0.00258849      -0.00223431
O        2.86210286       0.06102633       6.30232192       36      -2.00000000      -2.00000000       0.00352928      -0.00282091       0.00089743
O       -0.01110550       5.86264352       6.30355604       36      -2.00000000      -2.00000000       0.00122383       0.00155191      -0.00086399
O        0.04209833       5.91309077       1.87366966       36      -2.00000000      -2.00000000      -0.00367990      -0.00326141      -0.00050587
40
Lattice="5.871719567924211 0.0 0.0 -0.002047239476247371 11.7619502501663 0.0 0.005327741648374076 0.0003095437625553316 8.176587647902549" Properties=species:S:1:pos:R:3:spacegroup_kinds:I:1:field_charges:R:1:initial_charges:R:1:forces:R:3 spacegroup="P b a m" unit_cell=conventional occupancy="_JSON {\"0\": {\"Pb\": 1.0}, \"1\": {\"Pb\": 1.0}, \"2\": {\"Pb\": 1.0}, \"3\": {\"Pb\": 1.0}, \"4\": {\"Pb\": 1.0}, \"5\": {\"Pb\": 1.0}, \"6\": {\"Pb\": 1.0}, \"7\": {\"Pb\": 1.0}, \"8\": {\"Zr\": 1.0}, \"9\": {\"Zr\": 1.0}, \"10\": {\"Zr\": 1.0}, \"11\": {\"Zr\": 1.0}, \"12\": {\"Zr\": 1.0}, \"13\": {\"Zr\": 1.0}, \"14\": {\"Zr\": 1.0}, \"15\": {\"Zr\": 1.0}, \"16\": {\"O\": 1.0}, \"17\": {\"O\": 1.0}, \"18\": {\"O\": 1.0}, \"19\": {\"O\": 1.0}, \"20\": {\"O\": 1.0}, \"21\": {\"O\": 1.0}, \"22\": {\"O\": 1.0}, \"23\": {\"O\": 1.0}, \"24\": {\"O\": 1.0}, \"25\": {\"O\": 1.0}, \"26\": {\"O\": 1.0}, \"27\": {\"O\": 1.0}, \"28\": {\"O\": 1.0}, \"29\": {\"O\": 1.0}, \"30\": {\"O\": 1.0}, \"31\": {\"O\": 1.0}, \"32\": {\"O\": 1.0}, \"33\": {\"O\": 1.0}, \"34\": {\"O\": 1.0}, \"35\": {\"O\": 1.0}, \"36\": {\"O\": 1.0}, \"37\": {\"O\": 1.0}, \"38\": {\"O\": 1.0}, \"39\": {\"O\": 1.0}}" neb_image=3 energy=-39205.77602381885 polarization_c_per_m2="_JSON [0.022300264890223014, -0.032991286337543335, -0.01606347394647431]" pbc="T T T"
Pb       1.19873257       1.39376021      -0.06723021        0       2.00000000       2.00000000      -0.00141370       0.00185335       0.01542108
Pb       4.71201553      10.24681687       0.04105108        0       2.00000000       2.00000000      -0.00213151       0.01108772       0.00538226
Pb       1.77761022       7.28739132       0.04213671        0       2.00000000       2.00000000      -0.00197750       0.00766078       0.00062684
Pb       4.12350716       4.37297653      -0.06792963        0       2.00000000       2.00000000      -0.00098355       0.01046898       0.01127598
Pb       1.21129137       1.47582802       4.05152035        4       2.00000000       2.00000000       0.00500426       0.00952456       0.01642612
Pb       4.62932905      10.21825431       4.09490233        4       2.00000000       2.00000000       0.00417671       0.00541546       0.00493951
Pb       1.75009368       7.34690248       4.09623165        4       2.00000000       2.00000000      -0.00681782       0.00489833       0.00412763
Pb       4.19916973       4.32036664       4.05794604        4       2.00000000       2.00000000      -0.00054565       0.00872970       0.00837655
Zr       4.35852607       1.45003677       2.02608708        8       4.00000000       4.00000000       0.00113357       0.00240104       0.00378282
Zr       1.51227832      10.27605138       6.13085441        8       4.00000000       4.00000000       0.00152521       0.00220671       0.00219415
Zr       1.52040634      10.28862576       2.04987825        8       4.00000000       4.00000000       0.00018275       0.00097086       0.00063755
Zr       4.35324123       1.43789638       6.13066241        8       4.00000000       4.00000000       0.00164259       0.00315085       0.00261565
Zr       4.46862893       7.32837277       6.14296861        8       4.00000000       4.00000000      -0.00157590       0.00267545       0.00020328
Zr       1.43877450       4.39546212       2.03811698        8       4.00000000       4.00000000      -0.00018131       0.00125420       0.00145312
Zr       1.43418729       4.40553258       6.12234816        8       4.00000000       4.00000000      -0.00049577       0.00201016       0.00267392
Zr       4.47573169       7.31722273       2.04075924        8       4.00000000       4.00000000      -0.00237499       0.00215947       0.00094370
O        4.50705107       1.87071355      -0.00325953       16      -2.00000000      -2.00000000       0.01280160       0.00342085       0.00026472
O        1.29219353       9.94466466       0.00362491       16      -2.00000000      -2.00000000       0.00056229      -0.00753396      -0.00102290
O        4.26445017       7.74177679       0.00396163       16      -2.00000000      -2.00000000      -0.00072588      -0.00033834      -0.00074666
O        1.63869981       4.04611937      -0.00210073       16      -2.00000000      -2.00000000      -0.00659994      -0.00593454      -0.00032471
O        4.67653439       1.12472584       4.09027559       20      -2.00000000      -2.00000000       0.00310798      -0.00964883      -0.00091193
O        1.14523366      10.66081397       4.08927720       20      -2.00000000      -2.00000000       0.00368050       0.00259520      -0.00115769
O        4.13068469       7.01831141       4.08939470       20      -2.00000000      -2.00000000      -0.00739358      -0.00677534      -0.00099378
O        1.77446252       4.78919419       4.09063561       20      -2.00000000      -2.00000000       0.00201646       0.00212024      -0.00080462
O        3.08531205       3.05082941       2.33074923       24      -2.00000000      -2.00000000       0.00899770       0.00611520      -0.00512958
O        2.78857612       8.73052804       5.86663881       24      -2.00000000      -2.00000000      -0.00294926      -0.00420258      -0.00159644
O        2.72878985       8.67088755       2.29214377       24      -2.00000000      -2.00000000      -0.00392372      -0.00337047      -0.00389028
O        3.18378097       3.13897739       5.90446294       24      -2.00000000      -2.00000000      -0.00772559      -0.00754229      -0.00710356
O        5.68826758       8.96219971       5.88942148       24      -2.00000000      -2.00000000       0.00322568      -0.00340869      -0.01010378
O        0.11392641       2.87870082       2.33591152       24      -2.00000000      -2.00000000       0.01376495      -0.01357938       0.00109020
O        0.21335045       2.78485179       5.89108394       24      -2.00000000      -2.00000000      -0.00420863       0.00409089      -0.01427621
O        5.62944033       9.01931662       2.26446420       24      -2.00000000      -2.00000000       0.00145065      -0.00390404       0.00340372
O        2.96941866       5.87982840       1.66784849       32      -2.00000000      -2.00000000      -0.00221773      -0.00203299      -0.00873082
O        2.90854049       5.93104019       6.51557482       32      -2.00000000      -2.00000000       0.00110308      -0.00460894       0.00242456
O       -0.03941978      -0.00357300       6.52541720       32      -2.00000000      -2.00000000       0.00486744       0.00025663      -0.00034852
O        0.03256507       0.05708832       1.66972093       32      -2.00000000      -2.00000000      -0.00962192      -0.01283339      -0.01215282
O        2.94137031      -0.01484168       1.88797512       36      -2.00000000      -2.00000000      -0.00426536       0.00517457      -0.01493853
O        2.83690444       0.08292457       6.29912958       36      -2.00000000      -2.00000000       0.01018201      -0.00702640       0.00250285
O       -0.01545071       5.84981510       6.31240565       36      -2.00000000      -2.00000000      -0.00222406       0.00043790      -0.00452823
O        0.08114003       5.94366691       1.88034154       36      -2.00000000      -2.00000000      -0.00907208      -0.00793892      -0.00200511
40