40
Lattice="5.871972 0.0 0.0 0.0 11.774171 0.0 0.0 0.0 8.178836" Properties=species:S:1:pos:R:3:spacegroup_kinds:I:1:field_charges:R:1:initial_charges:R:1:forces:R:3 spacegroup="P b a m" unit_cell=conventional occupancy="_JSON {\"0\": {\"Pb\": 1.0}, \"1\": {\"Pb\": 1.0}, \"2\": {\"Pb\": 1.0}, \"3\": {\"Pb\": 1.0}, \"4\": {\"Pb\": 1.0}, \"5\": {\"Pb\": 1.0}, \"6\": {\"Pb\": 1.0}, \"7\": {\"Pb\": 1.0}, \"8\": {\"Zr\": 1.0}, \"9\": {\"Zr\": 1.0}, \"10\": {\"Zr\": 1.0}, \"11\": {\"Zr\": 1.0}, \"12\": {\"Zr\": 1.0}, \"13\": {\"Zr\": 1.0}, \"14\": {\"Zr\": 1.0}, \"15\": {\"Zr\": 1.0}, \"16\": {\"O\": 1.0}, \"17\": {\"O\": 1.0}, \"18\": {\"O\": 1.0}, \"19\": {\"O\": 1.0}, \"20\": {\"O\": 1.0}, \"21\": {\"O\": 1.0}, \"22\": {\"O\": 1.0}, \"23\": {\"O\": 1.0}, \"24\": {\"O\": 1.0}, \"25\": {\"O\": 1.0}, \"26\": {\"O\": 1.0}, \"27\": {\"O\": 1.0}, \"28\": {\"O\": 1.0}, \"29\": {\"O\": 1.0}, \"30\": {\"O\": 1.0}, \"31\": {\"O\": 1.0}, \"32\": {\"O\": 1.0}, \"33\": {\"O\": 1.0}, \"34\": {\"O\": 1.0}, \"35\": {\"O\": 1.0}, \"36\": {\"O\": 1.0}, \"37\": {\"O\": 1.0}, \"38\": {\"O\": 1.0}, \"39\": {\"O\": 1.0}}" neb_image=0 energy=-39205.764739708866 polarization_c_per_m2="_JSON [-0.0012611573750599988, 0.0349032942069816, -1.3526432333244794e-15]" pbc="T T T"
Pb       1.17373646       1.45287285      -0.00000000        0       2.00000000       2.00000000       0.01811033      -0.02203254      -0.00000000
Pb       4.69823554      10.32129815      -0.00000000        0       2.00000000       2.00000000       0.02886545      -0.02506414      -0.00000000
Pb       1.76224954       7.33995835      -0.00000000        0       2.00000000       2.00000000       0.02886545      -0.02203254      -0.00000000
Pb       4.10972246       4.43421265      -0.00000000        0       2.00000000       2.00000000       0.01811033      -0.02506414      -0.00000000
Pb       1.22777814       1.51267559       4.08941800        4       2.00000000       2.00000000       0.01833476      -0.01928032       0.00000000
Pb       4.64419386      10.26149541       4.08941800        4       2.00000000       2.00000000       0.02864101      -0.02781637       0.00000000
Pb       1.70820786       7.39976109       4.08941800        4       2.00000000       2.00000000       0.02864101      -0.01928032       0.00000000
Pb       4.16376414       4.37440991       4.08941800        4       2.00000000       2.00000000       0.01833476      -0.02781637       0.00000000
Zr       4.35630128       1.46381254       2.04209901        8       4.00000000       4.00000000       0.04074979      -0.05115421       0.00128299
Zr       1.51567072      10.31035846       6.13673699        8       4.00000000       4.00000000       0.05320176      -0.04303916      -0.00128299
Zr       1.51567072      10.31035846       2.04209901        8       4.00000000       4.00000000       0.05320176      -0.04303916       0.00128299
Zr       4.35630128       1.46381254       6.13673699        8       4.00000000       4.00000000       0.04074979      -0.05115421      -0.00128299
Zr       4.45165672       7.35089804       6.13673699        8       4.00000000       4.00000000       0.05320176      -0.05115421      -0.00128299
Zr       1.42031528       4.42327296       2.04209901        8       4.00000000       4.00000000       0.04074979      -0.04303916       0.00128299
Zr       1.42031528       4.42327296       6.13673699        8       4.00000000       4.00000000       0.04074979      -0.04303916      -0.00128299
Zr       4.45165672       7.35089804       2.04209901        8       4.00000000       4.00000000       0.05320176      -0.05115421       0.00128299
O        4.55672239       1.85661981      -0.00000000       16      -2.00000000      -2.00000000      -0.01967453       0.01834648       0.00000000
O        1.31524961       9.91755119      -0.00000000       16      -2.00000000      -2.00000000      -0.02730124       0.02875020       0.00000000
O        4.25123561       7.74370531      -0.00000000       16      -2.00000000      -2.00000000      -0.02730124       0.01834648       0.00000000
O        1.62073639       4.03046569      -0.00000000       16      -2.00000000      -2.00000000      -0.01967453       0.02875020       0.00000000
O        4.70256932       1.10550087       4.08941800       20      -2.00000000      -2.00000000      -0.01760133       0.03098644      -0.00000000
O        1.16940268      10.66867013       4.08941800       20      -2.00000000      -2.00000000      -0.02937445       0.01611025      -0.00000000
O        4.10538868       6.99258637       4.08941800       20      -2.00000000      -2.00000000      -0.02937445       0.03098644      -0.00000000
O        1.76658332       4.78158463       4.08941800       20      -2.00000000      -2.00000000      -0.01760133       0.01611025      -0.00000000
O        3.12999853       3.08379167       2.30409508       24      -2.00000000      -2.00000000      -0.03345472       0.03894801      -0.00556508
O        2.74197347       8.69037933       5.87474092       24      -2.00000000      -2.00000000      -0.01352106       0.00814867       0.00556508
O        2.74197347       8.69037933       2.30409508       24      -2.00000000      -2.00000000      -0.01352106       0.00814867      -0.00556508
O        3.12999853       3.08379167       5.87474092       24      -2.00000000      -2.00000000      -0.03345472       0.03894801       0.00556508
O        5.67795947       8.97087717       5.87474092       24      -2.00000000      -2.00000000      -0.01352106       0.03894801       0.00556508
O        0.19401253       2.80329383       2.30409508       24      -2.00000000      -2.00000000      -0.03345472       0.00814867      -0.00556508
O        0.19401253       2.80329383       5.87474092       24      -2.00000000      -2.00000000      -0.03345472       0.00814867       0.00556508
O        5.67795947       8.97087717       2.30409508       24      -2.00000000      -2.00000000      -0.01352106       0.03894801      -0.00556508
O        2.93598600       5.88708550       1.65175084       32      -2.00000000      -2.00000000      -0.02348789       0.02354834       0.00096873
O        2.93598600       5.88708550       6.52708516       32      -2.00000000      -2.00000000      -0.02348789       0.02354834      -0.00096873
O        0.00000000       0.00000000       6.52708516       32      -2.00000000      -2.00000000      -0.02348789       0.02354834      -0.00096873
O       -0.00000000       0.00000000       1.65175084       32      -2.00000000      -2.00000000      -0.02348789       0.02354834       0.00096873
O        2.93598600       0.00000000       1.87160782       36      -2.00000000      -2.00000000      -0.02348789       0.02354834       0.00119428
O        2.93598600       0.00000000       6.30722818       36      -2.00000000      -2.00000000      -0.02348789       0.02354834      -0.00119428
O        0.00000000       5.88708550       6.30722818       36      -2.00000000      -2.00000000      -0.02348789       0.02354834      -0.00119428
O        0.00000000       5.88708550       1.87160782       36      -2.00000000      -2.00000000      -0.02348789       0.02354834       0.00119428
40
Lattice="5.869490642942941 0.0 0.0 -0.004860849438315573 11.76590738427079 0.0 -5.757780680702214e-05 -3.4195101881316005e-07 8.171521602748895" Properties=species:S:1:pos:R:3:spacegroup_kinds:I:1:field_charges:R:1:initial_charges:R:1:forces:R:3 spacegroup="P b a m" unit_cell=conventional occupancy="_JSON {\"0\": {\"Pb\": 1.0}, \"1\": {\"Pb\": 1.0}, \"2\": {\"Pb\": 1.0}, \"3\": {\"Pb\": 1.0}, \"4\": {\"Pb\": 1.0}, \"5\": {\"Pb\": 1.0}, \"6\": {\"Pb\": 1.0}, \"7\": {\"Pb\": 1.0}, \"8\": {\"Zr\": 1.0}, \"9\": {\"Zr\": 1.0}, \"10\": {\"Zr\": 1.0}, \"11\": {\"Zr\": 1.0}, \"12\": {\"Zr\": 1.0}, \"13\": {\"Zr\": 1.0}, \"14\": {\"Zr\": 1.0}, \"15\": {\"Zr\": 1.0}, \"16\": {\"O\": 1.0}, \"17\": {\"O\": 1.0}, \"18\": {\"O\": 1.0}, \"19\": {\"O\": 1.0}, \"20\": {\"O\": 1.0}, \"21\": {\"O\": 1.0}, \"22\": {\"O\": 1.0}, \"23\": {\"O\": 1.0}, \"24\": {\"O\": 1.0}, \"25\": {\"O\": 1.0}, \"26\": {\"O\": 1.0}, \"27\": {\"O\": 1.0}, \"28\": {\"O\": 1.0}, \"29\": {\"O\": 1.0}, \"30\": {\"O\": 1.0}, \"31\": {\"O\": 1.0}, \"32\": {\"O\": 1.0}, \"33\": {\"O\": 1.0}, \"34\": {\"O\": 1.0}, \"35\": {\"O\": 1.0}, \"36\": {\"O\": 1.0}, \"37\": {\"O\": 1.0}, \"38\": {\"O\": 1.0}, \"39\": {\"O\": 1.0}}" neb_image=1 energy=-39205.78206312082 polarization_c_per_m2="_JSON [0.020346857807323166, -0.007528876049567127, 7.761426534862402e-05]" pbc="T T T"
Pb       1.19195594       1.41288799       0.00057522        0       2.00000000       2.00000000       0.00407253      -0.00827750      -0.00007848
Pb       4.70479015      10.27817318      -0.00048484        0       2.00000000       2.00000000       0.00268915      -0.00763635       0.00001520
Pb       1.76974620       7.30645641      -0.00046626        0       2.00000000       2.00000000       0.00239712      -0.00600997       0.00001732
Pb       4.11710182       4.39839715       0.00062813        0       2.00000000       2.00000000       0.00229655      -0.00696036      -0.00008525
Pb       1.22245220       1.49244508       4.08601431        4       2.00000000       2.00000000      -0.00093848      -0.00407732      -0.00006234
Pb       4.63362173      10.23381698       4.08564357        4       2.00000000       2.00000000      -0.00095382      -0.00435408      -0.00001124
Pb       1.72869786       7.36580419       4.08564163        4       2.00000000       2.00000000       0.00516212      -0.00610515      -0.00001657
Pb       4.18571211       4.34243132       4.08599252        4       2.00000000       2.00000000       0.00539886      -0.00614971      -0.00004705
Zr       4.35573935       1.45165782       2.03685449        8       4.00000000       4.00000000       0.00038440      -0.00234519      -0.00075649
Zr       1.51424616      10.29141702       6.12758172        8       4.00000000       4.00000000       0.00070426      -0.00250361      -0.00077572
Zr       1.51417589      10.29129449       2.04386997        8       4.00000000       4.00000000       0.00071541      -0.00248963       0.00076944
Zr       4.35578812       1.45178758       6.13480858        8       4.00000000       4.00000000       0.00038081      -0.00235755       0.00072633
Zr       4.45932138       7.33192163       6.13419396        8       4.00000000       4.00000000       0.00266726      -0.00291410       0.00063124
Zr       1.42811824       4.40703962       2.04330034        8       4.00000000       4.00000000       0.00217995      -0.00279074       0.00061766
Zr       1.42817883       4.40692502       6.12835123        8       4.00000000       4.00000000       0.00217579      -0.00278740      -0.00064161
Zr       4.45925168       7.33204596       2.03724768        8       4.00000000       4.00000000       0.00267770      -0.00292143      -0.00063396
O        4.53339650       1.87329154       0.00002853       16      -2.00000000      -2.00000000      -0.00442495       0.00377313      -0.00000269
O        1.29437605       9.93183948      -0.00002811       16      -2.00000000      -2.00000000      -0.00344967       0.00451377       0.00000445
O        4.25046235       7.74404051      -0.00003063       16      -2.00000000      -2.00000000       0.00094611       0.00121038       0.00000444
O        1.62336640       4.03709594       0.00002469       16      -2.00000000      -2.00000000       0.00110463       0.00202010       0.00000008
O        4.68341039       1.11456310       4.08574452       20      -2.00000000      -2.00000000      -0.00355578       0.00209107       0.00000357
O        1.14919049      10.66898969       4.08576201       20      -2.00000000      -2.00000000      -0.00324216       0.00162337       0.00000380
O        4.10835627       7.00368627       4.08576100       20      -2.00000000      -2.00000000       0.00165412       0.00343326       0.00000328
O        1.76976481       4.78881915       4.08574033       20      -2.00000000      -2.00000000       0.00126428       0.00223596       0.00000520
O        3.13274441       3.09534224       2.29782844       24      -2.00000000      -2.00000000       0.00097211       0.00275315      -0.00078194
O        2.74576078       8.69559977       5.86938673       24      -2.00000000      -2.00000000       0.00189586       0.00247963      -0.00001332
O        2.74641788       8.69622750       2.30239846       24      -2.00000000      -2.00000000       0.00187970       0.00245650       0.00002648
O        3.13186725       3.09454004       5.87318280       24      -2.00000000      -2.00000000       0.00109299       0.00285425       0.00086690
O        5.65996445       8.98189847       5.88301074       24      -2.00000000      -2.00000000      -0.00244978       0.00360862       0.00285115
O        0.17679526       2.81589131       2.31236142       24      -2.00000000      -2.00000000      -0.00356255       0.00326604       0.00225497
O        0.17592604       2.81670516       5.85872733       24      -2.00000000      -2.00000000      -0.00344104       0.00315022      -0.00218618
O        5.66062286       8.98127499       2.28882503       24      -2.00000000      -2.00000000      -0.00246684       0.00363472      -0.00284545
O        2.92567952       5.90291040       1.65383855       32      -2.00000000      -2.00000000      -0.00125414       0.00413000       0.00079170
O        2.92629516       5.90239862       6.51766132       32      -2.00000000      -2.00000000      -0.00130011       0.00416512      -0.00076603
O       -0.00709009       0.01313304       6.52014499       32      -2.00000000      -2.00000000      -0.00159392       0.00271564      -0.00022672
O       -0.00772264       0.01260140       1.65129110       32      -2.00000000      -2.00000000      -0.00151943       0.00277987       0.00026814
O        2.89985658       0.02689241       1.86856354       36      -2.00000000      -2.00000000      -0.00724589       0.00555074      -0.00025363
O        2.90082338       0.02597862       6.30294417       36      -2.00000000      -2.00000000      -0.00734038       0.00563280       0.00028286
O        0.00711452       5.88451799       6.30117602       36      -2.00000000      -2.00000000       0.00197287       0.00026007      -0.00007035
O        0.00613878       5.88358839       1.87025039       36      -2.00000000      -2.00000000       0.00205436       0.00034168       0.00011080
40
Lattice="5.871045500705925 0.0 0.0 -0.008782446225822216 11.765228834357844 0.0 0.00300042645405825 3.436493820434361e-05 8.172883111567815" Properties=species:S:1:pos:R:3:spacegroup_kinds:I:1:field_charges:R:1:initial_charges:R:1:forces:R:3 spacegroup="P b a m" unit_cell=conventional occupancy="_JSON {\"0\": {\"Pb\": 1.0}, \"1\": {\"Pb\": 1.0}, \"2\": {\"Pb\": 1.0}, \"3\": {\"Pb\": 1.0}, \"4\": {\"Pb\": 1.0}, \"5\": {\"Pb\": 1.0}, \"6\": {\"Pb\": 1.0}, \"7\": {\"Pb\": 1.0}, \"8\": {\"Zr\": 1.0}, \"9\": {\"Zr\": 1.0}, \"10\": {\"Zr\": 1.0}, \"11\": {\"Zr\": 1.0}, \"12\": {\"Zr\": 1.0}, \"13\": {\"Zr\": 1.0}, \"14\": {\"Zr\": 1.0}, \"15\": {\"Zr\": 1.0}, \"16\": {\"O\": 1.0}, \"17\": {\"O\": 1.0}, \"18\": {\"O\": 1.0}, \"19\": {\"O\": 1.0}, \"20\": {\"O\": 1.0}, \"21\": {\"O\": 1.0}, \"22\": {\"O\": 1.0}, \"23\": {\"O\": 1.0}, \"24\": {\"O\": 1.0}, \"25\": {\"O\": 1.0}, \"26\": {\"O\": 1.0}, \"27\": {\"O\": 1.0}, \"28\": {\"O\": 1.0}, \"29\": {\"O\": 1.0}, \"30\": {\"O\": 1.0}, \"31\": {\"O\": 1.0}, \"32\": {\"O\": 1.0}, \"33\": {\"O\": 1.0}, \"34\": {\"O\": 1.0}, \"35\": {\"O\": 1.0}, \"36\": {\"O\": 1.0}, \"37\": {\"O\": 1.0}, \"38\": {\"O\": 1.0}, \"39\": {\"O\": 1.0}}" neb_image=2 energy=-39205.78143811217 polarization_c_per_m2="_JSON [0.023077206476036883, -0.02667105193003152, -0.008335593902943875]" pbc="T T T"
Pb       1.19701438       1.39352370      -0.03114295        0       2.00000000       2.00000000       0.00111677       0.00116667       0.00697801
Pb       4.70403163      10.25815713       0.01940838        0       2.00000000       2.00000000      -0.00073736       0.00512072       0.00225644
Pb       1.77307684       7.29525049       0.01897872        0       2.00000000       2.00000000      -0.00211799       0.00193155       0.00130550
Pb       4.11751483       4.38175936      -0.03395351        0       2.00000000       2.00000000       0.00006451       0.00465239       0.00661527
Pb       1.21304507       1.48324173       4.06901517        4       2.00000000       2.00000000       0.00306525       0.00337676       0.00735025
Pb       4.62555818      10.22381752       4.08909199        4       2.00000000       2.00000000       0.00145068       0.00273916       0.00256903
Pb       1.73954276       7.35254485       4.08841896        4       2.00000000       2.00000000      -0.00295340       0.00265472       0.00362642
Pb       4.19537161       4.32725325       4.07181266        4       2.00000000       2.00000000      -0.00070052       0.00406151       0.00442294
Zr       4.35534004       1.44982259       2.03085661        8       4.00000000       4.00000000       0.00101198       0.00106814       0.00173311
Zr       1.50816270      10.28287976       6.12757276        8       4.00000000       4.00000000       0.00095647       0.00127687       0.00103202
Zr       1.51172334      10.28914954       2.04695985        8       4.00000000       4.00000000       0.00027504       0.00029069       0.00038898
Zr       4.35358285       1.44351126       6.13292902        8       4.00000000       4.00000000       0.00114524       0.00184224       0.00123323
Zr       4.46348370       7.32895817       6.13755820        8       4.00000000       4.00000000      -0.00097389       0.00134928       0.00047177
Zr       1.43327438       4.40052331       2.04102192        8       4.00000000       4.00000000      -0.00050348       0.00040818       0.00086907
Zr       1.43101949       4.40509179       6.12398623        8       4.00000000       4.00000000      -0.00051131       0.00083629       0.00143753
Zr       4.46691700       7.32350710       2.03778733        8       4.00000000       4.00000000      -0.00150866       0.00126420       0.00069982
O        4.51844439       1.87482539      -0.00137517       16      -2.00000000      -2.00000000       0.00386026       0.00126403       0.00011711
O        1.28370296       9.94100159       0.00160087       16      -2.00000000      -2.00000000       0.00172973      -0.00304010      -0.00045257
O        4.25873764       7.74368035       0.00168451       16      -2.00000000      -2.00000000      -0.00173643       0.00036109      -0.00027665
O        1.63207668       4.04233597      -0.00086949       16      -2.00000000      -2.00000000      -0.00281650      -0.00248287      -0.00019367
O        4.67629432       1.11762942       4.08751411       20      -2.00000000      -2.00000000       0.00191798      -0.00396005      -0.00047158
O        1.14091609      10.66563693       4.08690701       20      -2.00000000      -2.00000000       0.00152981       0.00165159      -0.00059629
O        4.11788598       7.01588433       4.08687156       20      -2.00000000      -2.00000000      -0.00261292      -0.00431298      -0.00046682
O        1.77409670       4.79195822       4.08788246       20      -2.00000000      -2.00000000      -0.00033675       0.00075611      -0.00059294
O        3.10937813       3.07536108       2.31438961       24      -2.00000000      -2.00000000       0.00437492       0.00299736      -0.00279268
O        2.76171951       8.71245382       5.87115817       24      -2.00000000      -2.00000000       0.00046500      -0.00016872      -0.00334313
O        2.73572548       8.68697784       2.29407874       24      -2.00000000      -2.00000000      -0.00183154      -0.00180630      -0.00017252
O        3.15745986       3.11768288       5.88819808       24      -2.00000000      -2.00000000      -0.00456426      -0.00391219      -0.00419910
O        5.66586735       8.97806143       5.88715641       24      -2.00000000      -2.00000000       0.00280098      -0.00243268      -0.00436828
O        0.14159876       2.85043124       2.32898254       24      -2.00000000      -2.00000000       0.00657330      -0.00661194      -0.00109034
O        0.18948233       2.80573831       5.86870267       24      -2.00000000      -2.00000000      -0.00273350       0.00224768      -0.00568904
O        5.63966164       9.00383688       2.27525057       24      -2.00000000      -2.00000000       0.00057757      -0.00167296       0.00084048
O        2.94692806       5.89364863       1.66057109       32      -2.00000000      -2.00000000      -0.00160005      -0.00079987      -0.00426528
O        2.91930085       5.91665667       6.51658630       32      -2.00000000      -2.00000000      -0.00092187      -0.00100467       0.00019598
O       -0.02276839       0.00790659       6.52192296       32      -2.00000000      -2.00000000       0.00251241       0.00021699      -0.00009818
O        0.00928248       0.03552053       1.65957293       32      -2.00000000      -2.00000000      -0.00316329      -0.00503931      -0.00532524
O        2.91197853       0.01252312       1.87351471       36      -2.00000000      -2.00000000      -0.00067346       0.00136191      -0.00563984
O        2.86521316       0.05622072       6.30379385       36      -2.00000000      -2.00000000       0.00487821      -0.00291826       0.00026101
O        0.00087490       5.87274937       6.30456591       36      -2.00000000      -2.00000000      -0.00217105      -0.00052762      -0.00115733
O        0.04622560       5.91695557       1.87716774       36      -2.00000000      -2.00000000      -0.00513788      -0.00420564      -0.00321251
40
Lattice="5.875646898855503 0.0 0.0 -0.009598809994977552 11.76316072477082 0.0 0.005271243840080361 0.0006391844095115815 8.179009064453236" Properties=species:S:1:pos:R:3:spacegroup_kinds:I:1:field_charges:R:1:initial_charges:R:1:forces:R:3 spacegroup="P b a m" unit_cell=conventional occupancy="_JSON {\"0\": {\"Pb\": 1.0}, \"1\": {\"Pb\": 1.0}, \"2\": {\"Pb\": 1.0}, \"3\": {\"Pb\": 1.0}, \"4\": {\"Pb\": 1.0}, \"5\": {\"Pb\": 1.0}, \"6\": {\"Pb\": 1.0}, \"7\": {\"Pb\": 1.0}, \"8\": {\"Zr\": 1.0}, \"9\": {\"Zr\": 1.0}, \"10\": {\"Zr\": 1.0}, \"11\": {\"Zr\": 1.0}, \"12\": {\"Zr\": 1.0}, \"13\": {\"Zr\": 1.0}, \"14\": {\"Zr\": 1.0}, \"15\": {\"Zr\": 1.0}, \"16\": {\"O\": 1.0}, \"17\": {\"O\": 1.0}, \"18\": {\"O\": 1.0}, \"19\": {\"O\": 1.0}, \"20\": {\"O\": 1.0}, \"21\": {\"O\": 1.0}, \"22\": {\"O\": 1.0}, \"23\": {\"O\": 1.0}, \"24\": {\"O\": 1.0}, \"25\": {\"O\": 1.0}, \"26\": {\"O\": 1.0}, \"27\": {\"O\": 1.0}, \"28\": {\"O\": 1.0}, \"29\": {\"O\": 1.0}, \"30\": {\"O\": 1.0}, \"31\": {\"O\": 1.0}, \"32\": {\"O\": 1.0}, \"33\": {\"O\": 1.0}, \"34\": {\"O\": 1.0}, \"35\": {\"O\": 1.0}, \"36\": {\"O\": 1.0}, \"37\": {\"O\": 1.0}, \"38\": {\"O\": 1.0}, \"39\": {\"O\": 1.0}}" neb_image=3 energy=-39205.76969667054 polarization_c_per_m2="_JSON [0.022627287316955347, -0.047802647320047756, -0.03485981255934371]" pbc="T T T"
Pb       1.19229732       1.38702730      -0.06427041        0       2.00000000       2.00000000       0.00286959       0.00022698       0.02369574
Pb       4.71069450      10.23070361       0.00672855        0       2.00000000       2.00000000      -0.00089352       0.01958862       0.01995887
Pb       1.78481216       7.28491379       0.01083189        0       2.00000000       2.00000000      -0.00792555       0.00609950       0.01219488
Pb       4.11980988       4.35815809      -0.06547596        0       2.00000000       2.00000000      -0.00188877       0.01975790       0.02115744
Pb       1.19959218       1.46692787       4.03616025        4       2.00000000       2.00000000       0.00835825       0.01829265       0.03443880
Pb       4.62234134      10.20895999       4.07879380        4       2.00000000       2.00000000       0.00396424       0.01285823       0.01213533
Pb       1.75592863       7.33825215       4.07269616        4       2.00000000       2.00000000      -0.01099527       0.01275355       0.01969855
Pb       4.20304194       4.30659767       4.05324446        4       2.00000000       2.00000000      -0.00216970       0.01731256       0.01379359
Zr       4.35408817       1.44426583       2.02390606        8       4.00000000       4.00000000       0.00342110       0.00429239       0.00591009
Zr       1.50565942      10.27529581       6.12688611        8       4.00000000       4.00000000       0.00159633       0.00356115       0.00438609
Zr       1.51129138      10.28588794       2.04641646        8       4.00000000       4.00000000       0.00142655       0.00220719       0.00313471
Zr       4.35308517       1.43470756       6.13160074        8       4.00000000       4.00000000       0.00259871       0.00579067       0.00473532
Zr       4.47312971       7.32127629       6.13954374        8       4.00000000       4.00000000      -0.00353390       0.00604612       0.00290323
Zr       1.43704765       4.39813726       2.03835680        8       4.00000000       4.00000000      -0.00119052       0.00064348       0.00309839
Zr       1.43623702       4.40051413       6.12152774        8       4.00000000       4.00000000      -0.00119326       0.00366661       0.00460559
Zr       4.47786363       7.31627846       2.03567596        8       4.00000000       4.00000000      -0.00447874       0.00390737       0.00330572
O        4.50339049       1.86837215      -0.00185619       16      -2.00000000      -2.00000000       0.01534204       0.00659257      -0.00035160
O        1.27521132       9.95427038       0.00378042       16      -2.00000000      -2.00000000       0.00718422      -0.01293323      -0.00172812
O        4.27027931       7.74043996       0.00296351       16      -2.00000000      -2.00000000      -0.00530020       0.00297096      -0.00080313
O        1.64675490       4.05389474       0.00018223       16      -2.00000000      -2.00000000      -0.01153484      -0.01158166      -0.00156482
O        4.67143596       1.13666046       4.09290323       20      -2.00000000      -2.00000000       0.00779950      -0.02241380      -0.00212223
O        1.13455097      10.65542451       4.09295281       20      -2.00000000      -2.00000000       0.00315450       0.00718784      -0.00262374
O        4.13437960       7.03683308       4.09227235       20      -2.00000000      -2.00000000      -0.01058057      -0.02009027      -0.00206416
O        1.77834535       4.78797922       4.09389616       20      -2.00000000      -2.00000000       0.00095141       0.00569153      -0.00237719
O        3.09116609       3.06067840       2.32961056       24      -2.00000000      -2.00000000       0.01031226       0.00546452      -0.00624518
O        2.76066124       8.71034055       5.89343741       24      -2.00000000      -2.00000000       0.00238620       0.00035328      -0.01677338
O        2.74756964       8.69516823       2.29654690       24      -2.00000000      -2.00000000      -0.01147771      -0.01179208      -0.00140960
O        3.18297296       3.13581920       5.91293533       24      -2.00000000      -2.00000000      -0.01072941      -0.00960868      -0.01549509
O        5.65561315       8.99058572       5.91419983       24      -2.00000000      -2.00000000       0.01123901      -0.01019210      -0.01915856
O        0.11009286       2.88240863       2.33664365       24      -2.00000000      -2.00000000       0.01731358      -0.01791291       0.00270658
O        0.20348252       2.79581446       5.89999126       24      -2.00000000      -2.00000000      -0.00354006       0.00283532      -0.02811191
O        5.64177562       9.01022719       2.27299399       24      -2.00000000      -2.00000000      -0.00326227      -0.00101271      -0.00011889
O        2.95679305       5.89702000       1.68289367       32      -2.00000000      -2.00000000       0.00353201      -0.01091207      -0.02286071
O        2.92900788       5.91984986       6.52087285       32      -2.00000000      -2.00000000      -0.00471369      -0.00249801       0.00258724
O       -0.03199938       0.00846008       6.52732059       32      -2.00000000      -2.00000000       0.00659479      -0.00061366       0.00116183
O        0.02500902       0.06031450       1.68713061       32      -2.00000000      -2.00000000      -0.01089332      -0.01831959      -0.02823612
O        2.91720786       0.00673966       1.90252024       36      -2.00000000      -2.00000000       0.00288581      -0.00074887      -0.02523578
O        2.84689408       0.06933717       6.30756726       36      -2.00000000      -2.00000000       0.01220566      -0.00615368      -0.00112738
O        0.01478218       5.87648544       6.31462008       36      -2.00000000      -2.00000000      -0.01024276      -0.00467235      -0.00388968
O        0.07090874       5.93609221       1.89514364       36      -2.00000000      -2.00000000      -0.00859171      -0.00664531      -0.01331072
40