40
Lattice="5.871972 0.0 0.0 0.0 11.774171 0.0 0.0 0.0 8.178836" Properties=species:S:1:pos:R:3:spacegroup_kinds:I:1:field_charges:R:1:initial_charges:R:1:forces:R:3 spacegroup="P b a m" unit_cell=conventional occupancy="_JSON {\"0\": {\"Pb\": 1.0}, \"1\": {\"Pb\": 1.0}, \"2\": {\"Pb\": 1.0}, \"3\": {\"Pb\": 1.0}, \"4\": {\"Pb\": 1.0}, \"5\": {\"Pb\": 1.0}, \"6\": {\"Pb\": 1.0}, \"7\": {\"Pb\": 1.0}, \"8\": {\"Zr\": 1.0}, \"9\": {\"Zr\": 1.0}, \"10\": {\"Zr\": 1.0}, \"11\": {\"Zr\": 1.0}, \"12\": {\"Zr\": 1.0}, \"13\": {\"Zr\": 1.0}, \"14\": {\"Zr\": 1.0}, \"15\": {\"Zr\": 1.0}, \"16\": {\"O\": 1.0}, \"17\": {\"O\": 1.0}, \"18\": {\"O\": 1.0}, \"19\": {\"O\": 1.0}, \"20\": {\"O\": 1.0}, \"21\": {\"O\": 1.0}, \"22\": {\"O\": 1.0}, \"23\": {\"O\": 1.0}, \"24\": {\"O\": 1.0}, \"25\": {\"O\": 1.0}, \"26\": {\"O\": 1.0}, \"27\": {\"O\": 1.0}, \"28\": {\"O\": 1.0}, \"29\": {\"O\": 1.0}, \"30\": {\"O\": 1.0}, \"31\": {\"O\": 1.0}, \"32\": {\"O\": 1.0}, \"33\": {\"O\": 1.0}, \"34\": {\"O\": 1.0}, \"35\": {\"O\": 1.0}, \"36\": {\"O\": 1.0}, \"37\": {\"O\": 1.0}, \"38\": {\"O\": 1.0}, \"39\": {\"O\": 1.0}}" neb_image=0 energy=-39205.764739708866 polarization_c_per_m2="_JSON [-0.0012611573750599988, 0.0349032942069816, -1.3526432333244794e-15]" pbc="T T T"
Pb       1.17373646       1.45287285      -0.00000000        0       2.00000000       2.00000000       0.01811033      -0.02203254      -0.00000000
Pb       4.69823554      10.32129815      -0.00000000        0       2.00000000       2.00000000       0.02886545      -0.02506414      -0.00000000
Pb       1.76224954       7.33995835      -0.00000000        0       2.00000000       2.00000000       0.02886545      -0.02203254      -0.00000000
Pb       4.10972246       4.43421265      -0.00000000        0       2.00000000       2.00000000       0.01811033      -0.02506414      -0.00000000
Pb       1.22777814       1.51267559       4.08941800        4       2.00000000       2.00000000       0.01833476      -0.01928032       0.00000000
Pb       4.64419386      10.26149541       4.08941800        4       2.00000000       2.00000000       0.02864101      -0.02781637       0.00000000
Pb       1.70820786       7.39976109       4.08941800        4       2.00000000       2.00000000       0.02864101      -0.01928032       0.00000000
Pb       4.16376414       4.37440991       4.08941800        4       2.00000000       2.00000000       0.01833476      -0.02781637       0.00000000
Zr       4.35630128       1.46381254       2.04209901        8       4.00000000       4.00000000       0.04074979      -0.05115421       0.00128299
Zr       1.51567072      10.31035846       6.13673699        8       4.00000000       4.00000000       0.05320176      -0.04303916      -0.00128299
Zr       1.51567072      10.31035846       2.04209901        8       4.00000000       4.00000000       0.05320176      -0.04303916       0.00128299
Zr       4.35630128       1.46381254       6.13673699        8       4.00000000       4.00000000       0.04074979      -0.05115421      -0.00128299
Zr       4.45165672       7.35089804       6.13673699        8       4.00000000       4.00000000       0.05320176      -0.05115421      -0.00128299
Zr       1.42031528       4.42327296       2.04209901        8       4.00000000       4.00000000       0.04074979      -0.04303916       0.00128299
Zr       1.42031528       4.42327296       6.13673699        8       4.00000000       4.00000000       0.04074979      -0.04303916      -0.00128299
Zr       4.45165672       7.35089804       2.04209901        8       4.00000000       4.00000000       0.05320176      -0.05115421       0.00128299
O        4.55672239       1.85661981      -0.00000000       16      -2.00000000      -2.00000000      -0.01967453       0.01834648       0.00000000
O        1.31524961       9.91755119      -0.00000000       16      -2.00000000      -2.00000000      -0.02730124       0.02875020       0.00000000
O        4.25123561       7.74370531      -0.00000000       16      -2.00000000      -2.00000000      -0.02730124       0.01834648       0.00000000
O        1.62073639       4.03046569      -0.00000000       16      -2.00000000      -2.00000000      -0.01967453       0.02875020       0.00000000
O        4.70256932       1.10550087       4.08941800       20      -2.00000000      -2.00000000      -0.01760133       0.03098644      -0.00000000
O        1.16940268      10.66867013       4.08941800       20      -2.00000000      -2.00000000      -0.02937445       0.01611025      -0.00000000
O        4.10538868       6.99258637       4.08941800       20      -2.00000000      -2.00000000      -0.02937445       0.03098644      -0.00000000
O        1.76658332       4.78158463       4.08941800       20      -2.00000000      -2.00000000      -0.01760133       0.01611025      -0.00000000
O        3.12999853       3.08379167       2.30409508       24      -2.00000000      -2.00000000      -0.03345472       0.03894801      -0.00556508
O        2.74197347       8.69037933       5.87474092       24      -2.00000000      -2.00000000      -0.01352106       0.00814867       0.00556508
O        2.74197347       8.69037933       2.30409508       24      -2.00000000      -2.00000000      -0.01352106       0.00814867      -0.00556508
O        3.12999853       3.08379167       5.87474092       24      -2.00000000      -2.00000000      -0.03345472       0.03894801       0.00556508
O        5.67795947       8.97087717       5.87474092       24      -2.00000000      -2.00000000      -0.01352106       0.03894801       0.00556508
O        0.19401253       2.80329383       2.30409508       24      -2.00000000      -2.00000000      -0.03345472       0.00814867      -0.00556508
O        0.19401253       2.80329383       5.87474092       24      -2.00000000      -2.00000000      -0.03345472       0.00814867       0.00556508
O        5.67795947       8.97087717       2.30409508       24      -2.00000000      -2.00000000      -0.01352106       0.03894801      -0.00556508
O        2.93598600       5.88708550       1.65175084       32      -2.00000000      -2.00000000      -0.02348789       0.02354834       0.00096873
O        2.93598600       5.88708550       6.52708516       32      -2.00000000      -2.00000000      -0.02348789       0.02354834      -0.00096873
O        0.00000000       0.00000000       6.52708516       32      -2.00000000      -2.00000000      -0.02348789       0.02354834      -0.00096873
O       -0.00000000       0.00000000       1.65175084       32      -2.00000000      -2.00000000      -0.02348789       0.02354834       0.00096873
O        2.93598600       0.00000000       1.87160782       36      -2.00000000      -2.00000000      -0.02348789       0.02354834       0.00119428
O        2.93598600       0.00000000       6.30722818       36      -2.00000000      -2.00000000      -0.02348789       0.02354834      -0.00119428
O        0.00000000       5.88708550       6.30722818       36      -2.00000000      -2.00000000      -0.02348789       0.02354834      -0.00119428
O        0.00000000       5.88708550       1.87160782       36      -2.00000000      -2.00000000      -0.02348789       0.02354834       0.00119428
40
Lattice="5.869487424817848 0.0 0.0 -0.004787146588617228 11.765901253646778 0.0 -6.426200931773607e-05 -3.230391475978779e-07 8.17153176686455" Properties=species:S:1:pos:R:3:spacegroup_kinds:I:1:field_charges:R:1:initial_charges:R:1:forces:R:3 spacegroup="P b a m" unit_cell=conventional occupancy="_JSON {\"0\": {\"Pb\": 1.0}, \"1\": {\"Pb\": 1.0}, \"2\": {\"Pb\": 1.0}, \"3\": {\"Pb\": 1.0}, \"4\": {\"Pb\": 1.0}, \"5\": {\"Pb\": 1.0}, \"6\": {\"Pb\": 1.0}, \"7\": {\"Pb\": 1.0}, \"8\": {\"Zr\": 1.0}, \"9\": {\"Zr\": 1.0}, \"10\": {\"Zr\": 1.0}, \"11\": {\"Zr\": 1.0}, \"12\": {\"Zr\": 1.0}, \"13\": {\"Zr\": 1.0}, \"14\": {\"Zr\": 1.0}, \"15\": {\"Zr\": 1.0}, \"16\": {\"O\": 1.0}, \"17\": {\"O\": 1.0}, \"18\": {\"O\": 1.0}, \"19\": {\"O\": 1.0}, \"20\": {\"O\": 1.0}, \"21\": {\"O\": 1.0}, \"22\": {\"O\": 1.0}, \"23\": {\"O\": 1.0}, \"24\": {\"O\": 1.0}, \"25\": {\"O\": 1.0}, \"26\": {\"O\": 1.0}, \"27\": {\"O\": 1.0}, \"28\": {\"O\": 1.0}, \"29\": {\"O\": 1.0}, \"30\": {\"O\": 1.0}, \"31\": {\"O\": 1.0}, \"32\": {\"O\": 1.0}, \"33\": {\"O\": 1.0}, \"34\": {\"O\": 1.0}, \"35\": {\"O\": 1.0}, \"36\": {\"O\": 1.0}, \"37\": {\"O\": 1.0}, \"38\": {\"O\": 1.0}, \"39\": {\"O\": 1.0}}" neb_image=1 energy=-39205.78202386616 polarization_c_per_m2="_JSON [0.020264029793086145, -0.007228813763816676, 8.48156092100774e-05]" pbc="T T T"
Pb       1.19181624       1.41323829       0.00064395        0       2.00000000       2.00000000       0.00417629      -0.00846817      -0.00008578
Pb       4.70481524      10.27844683      -0.00054663        0       2.00000000       2.00000000       0.00278348      -0.00783573       0.00001890
Pb       1.76974826       7.30665428      -0.00052536        0       2.00000000       2.00000000       0.00247664      -0.00615440       0.00002013
Pb       4.11709612       4.39864661       0.00070391        0       2.00000000       2.00000000       0.00237689      -0.00711882      -0.00009447
Pb       1.22256388       1.49257417       4.08604754        4       2.00000000       2.00000000      -0.00093404      -0.00417867      -0.00006694
Pb       4.63377973      10.23395987       4.08563275        4       2.00000000       2.00000000      -0.00095504      -0.00445405      -0.00001173
Pb       1.72856137       7.36600490       4.08563060        4       2.00000000       2.00000000       0.00528532      -0.00626902      -0.00001769
Pb       4.18554323       4.34263593       4.08602427        4       2.00000000       2.00000000       0.00553573      -0.00631600      -0.00005157
Zr       4.35576418       1.45171064       2.03689263        8       4.00000000       4.00000000       0.00041116      -0.00241104      -0.00077669
Zr       1.51433635      10.29149169       6.12761464        8       4.00000000       4.00000000       0.00074077      -0.00257206      -0.00079436
Zr       1.51425722      10.29135409       2.04383771        8       4.00000000       4.00000000       0.00075348      -0.00255653       0.00078815
Zr       4.35581951       1.45185650       6.13479660        8       4.00000000       4.00000000       0.00040710      -0.00242501       0.00074435
Zr       4.45929409       7.33199206       6.13417435        8       4.00000000       4.00000000       0.00273930      -0.00299192       0.00064524
Zr       1.42807978       4.40711632       2.04328769        8       4.00000000       4.00000000       0.00224221      -0.00286925       0.00063154
Zr       1.42814850       4.40698703       6.12838921        8       4.00000000       4.00000000       0.00223726      -0.00286515      -0.00065797
Zr       4.45921542       7.33213207       2.03726713        8       4.00000000       4.00000000       0.00275105      -0.00300059      -0.00064835
O        4.53357876       1.87319393       0.00003195       16      -2.00000000      -2.00000000      -0.00452061       0.00388520      -0.00000282
O        1.29454046       9.93169562      -0.00003145       16      -2.00000000      -2.00000000      -0.00354162       0.00463786       0.00000494
O        4.25040800       7.74401934      -0.00003427       16      -2.00000000      -2.00000000       0.00094152       0.00124986       0.00000477
O        1.62328796       4.03703923       0.00002784       16      -2.00000000      -2.00000000       0.00110193       0.00207448      -0.00000005
O        4.68355527       1.11455622       4.08574767       20      -2.00000000      -2.00000000      -0.00363542       0.00215690       0.00000390
O        1.14935356      10.66897833       4.08576757       20      -2.00000000      -2.00000000      -0.00333220       0.00167062       0.00000394
O        4.10827466       7.00355837       4.08576647       20      -2.00000000      -2.00000000       0.00166716       0.00352987       0.00000342
O        1.76971193       4.78875381       4.08574310       20      -2.00000000      -2.00000000       0.00128491       0.00231103       0.00000573
O        3.13276302       3.09531157       2.29781795       24      -2.00000000      -2.00000000       0.00097582       0.00281121      -0.00079192
O        2.74568546       8.69545200       5.86940580       24      -2.00000000      -2.00000000       0.00191921       0.00251783      -0.00000180
O        2.74642601       8.69615933       2.30242478       24      -2.00000000      -2.00000000       0.00190004       0.00249133       0.00001475
O        3.13178077       3.09441224       5.87314298       24      -2.00000000      -2.00000000       0.00111035       0.00292451       0.00088552
O        5.66006164       8.98181035       5.88292225       24      -2.00000000      -2.00000000      -0.00252637       0.00371425       0.00293240
O        0.17699971       2.81569574       2.31221827       24      -2.00000000      -2.00000000      -0.00366183       0.00335338       0.00231540
O        0.17602682       2.81660702       5.85882933       24      -2.00000000      -2.00000000      -0.00352703       0.00322549      -0.00223941
O        5.66080389       8.98110763       2.28896504       24      -2.00000000      -2.00000000      -0.00254712       0.00374536      -0.00292803
O        2.92566681       5.90282469       1.65379918       32      -2.00000000      -2.00000000      -0.00128956       0.00423056       0.00080218
O        2.92635989       5.90224888       6.51770963       32      -2.00000000      -2.00000000      -0.00134263       0.00427100      -0.00077413
O       -0.00701698       0.01305896       6.52016124       32      -2.00000000      -2.00000000      -0.00162414       0.00279207      -0.00023126
O       -0.00772712       0.01246256       1.65127674       32      -2.00000000      -2.00000000      -0.00154157       0.00286306       0.00027519
O        2.90004585       0.02676698       1.86859245       36      -2.00000000      -2.00000000      -0.00740634       0.00567507      -0.00025043
O        2.90113225       0.02574027       6.30292591       36      -2.00000000      -2.00000000      -0.00751226       0.00576729       0.00028078
O        0.00705843       5.88450404       6.30118672       36      -2.00000000      -2.00000000       0.00199358       0.00024784      -0.00007196
O        0.00596064       5.88345901       1.87024013       36      -2.00000000      -2.00000000       0.00208657       0.00034034       0.00011613
40
Lattice="5.871045300769248 0.0 0.0 -0.009079448325846723 11.765223182194356 0.0 0.002867529801998229 2.6507244546761966e-05 8.17287191336627" Properties=species:S:1:pos:R:3:spacegroup_kinds:I:1:field_charges:R:1:initial_charges:R:1:forces:R:3 spacegroup="P b a m" unit_cell=conventional occupancy="_JSON {\"0\": {\"Pb\": 1.0}, \"1\": {\"Pb\": 1.0}, \"2\": {\"Pb\": 1.0}, \"3\": {\"Pb\": 1.0}, \"4\": {\"Pb\": 1.0}, \"5\": {\"Pb\": 1.0}, \"6\": {\"Pb\": 1.0}, \"7\": {\"Pb\": 1.0}, \"8\": {\"Zr\": 1.0}, \"9\": {\"Zr\": 1.0}, \"10\": {\"Zr\": 1.0}, \"11\": {\"Zr\": 1.0}, \"12\": {\"Zr\": 1.0}, \"13\": {\"Zr\": 1.0}, \"14\": {\"Zr\": 1.0}, \"15\": {\"Zr\": 1.0}, \"16\": {\"O\": 1.0}, \"17\": {\"O\": 1.0}, \"18\": {\"O\": 1.0}, \"19\": {\"O\": 1.0}, \"20\": {\"O\": 1.0}, \"21\": {\"O\": 1.0}, \"22\": {\"O\": 1.0}, \"23\": {\"O\": 1.0}, \"24\": {\"O\": 1.0}, \"25\": {\"O\": 1.0}, \"26\": {\"O\": 1.0}, \"27\": {\"O\": 1.0}, \"28\": {\"O\": 1.0}, \"29\": {\"O\": 1.0}, \"30\": {\"O\": 1.0}, \"31\": {\"O\": 1.0}, \"32\": {\"O\": 1.0}, \"33\": {\"O\": 1.0}, \"34\": {\"O\": 1.0}, \"35\": {\"O\": 1.0}, \"36\": {\"O\": 1.0}, \"37\": {\"O\": 1.0}, \"38\": {\"O\": 1.0}, \"39\": {\"O\": 1.0}}" neb_image=2 energy=-39205.78146676715 polarization_c_per_m2="_JSON [0.023043415579465563, -0.02653387402512425, -0.0084437094420636]" pbc="T T T"
Pb       1.19716203       1.39302652      -0.03027697        0       2.00000000       2.00000000       0.00125473       0.00118596       0.00672078
Pb       4.70375820      10.25759350       0.01844104        0       2.00000000       2.00000000      -0.00065314       0.00515540       0.00245567
Pb       1.77316912       7.29596771       0.01803736        0       2.00000000       2.00000000      -0.00224924       0.00164734       0.00162593
Pb       4.11731046       4.38248443      -0.03324880        0       2.00000000       2.00000000       0.00023234       0.00460440       0.00656548
Pb       1.21264339       1.48367493       4.06919930        4       2.00000000       2.00000000       0.00314105       0.00320209       0.00725775
Pb       4.62504899      10.22438110       4.08876059        4       2.00000000       2.00000000       0.00142720       0.00268013       0.00264905
Pb       1.73877396       7.35230112       4.08801872        4       2.00000000       2.00000000      -0.00282960       0.00263589       0.00378231
Pb       4.19507912       4.32687425       4.07197255        4       2.00000000       2.00000000      -0.00072456       0.00392854       0.00450777
Zr       4.35527510       1.44968263       2.03085417        8       4.00000000       4.00000000       0.00102810       0.00107741       0.00170745
Zr       1.50785870      10.28291379       6.12748232        8       4.00000000       4.00000000       0.00098395       0.00123128       0.00103269
Zr       1.51136913      10.28899208       2.04687330        8       4.00000000       4.00000000       0.00029100       0.00027689       0.00042106
Zr       4.35361815       1.44357797       6.13306588        8       4.00000000       4.00000000       0.00112072       0.00182280       0.00122401
Zr       4.46322281       7.32895399       6.13732887        8       4.00000000       4.00000000      -0.00096233       0.00137733       0.00054502
Zr       1.43306290       4.40076237       2.04105518        8       4.00000000       4.00000000      -0.00049618       0.00032521       0.00087387
Zr       1.43087556       4.40508142       6.12402937        8       4.00000000       4.00000000      -0.00052758       0.00084368       0.00146468
Zr       4.46660732       7.32369928       2.03777296        8       4.00000000       4.00000000      -0.00148514       0.00123792       0.00072804
O        4.51897791       1.87485442      -0.00131170       16      -2.00000000      -2.00000000       0.00346000       0.00121327       0.00009715
O        1.28331200       9.94101713       0.00158711       16      -2.00000000      -2.00000000       0.00183068      -0.00298988      -0.00045582
O        4.25864999       7.74366513       0.00164969       16      -2.00000000      -2.00000000      -0.00179158       0.00044923      -0.00026334
O        1.63160879       4.04223126      -0.00081732       16      -2.00000000      -2.00000000      -0.00263377      -0.00247763      -0.00020401
O        4.67614281       1.11665653       4.08748539       20      -2.00000000      -2.00000000       0.00193927      -0.00369684      -0.00047193
O        1.14052507      10.66474195       4.08691632       20      -2.00000000      -2.00000000       0.00152397       0.00177768      -0.00059669
O        4.11731401       7.01675969       4.08687525       20      -2.00000000      -2.00000000      -0.00246169      -0.00448282      -0.00046780
O        1.77403644       4.79267941       4.08786390       20      -2.00000000      -2.00000000      -0.00048145       0.00075441      -0.00060508
O        3.10881601       3.07483283       2.31477468       24      -2.00000000      -2.00000000       0.00438254       0.00304664      -0.00272249
O        2.75959501       8.71065573       5.87258441       24      -2.00000000      -2.00000000       0.00082608       0.00014960      -0.00373481
O        2.73492402       8.68638202       2.29331269       24      -2.00000000      -2.00000000      -0.00180024      -0.00178009      -0.00003157
O        3.15597574       3.11630691       5.88734745       24      -2.00000000      -2.00000000      -0.00464516      -0.00392934      -0.00434315
O        5.66385367       8.97960673       5.88831810       24      -2.00000000      -2.00000000       0.00305343      -0.00258177      -0.00446217
O        0.14107768       2.85093761       2.32991392       24      -2.00000000      -2.00000000       0.00656779      -0.00664134      -0.00134662
O        0.18796270       2.80718376       5.86722875       24      -2.00000000      -2.00000000      -0.00277718       0.00224753      -0.00535309
O        5.63893402       9.00429575       2.27478027       24      -2.00000000      -2.00000000       0.00058401      -0.00168618       0.00082881
O        2.94738297       5.89299005       1.66032843       32      -2.00000000      -2.00000000      -0.00170152      -0.00066680      -0.00425294
O        2.92057747       5.91527644       6.51695737       32      -2.00000000      -2.00000000      -0.00101711      -0.00089087       0.00012485
O       -0.02122381       0.00921563       6.52178714       32      -2.00000000      -2.00000000       0.00239979       0.00017242      -0.00012202
O        0.01005860       0.03619362       1.65976661       32      -2.00000000      -2.00000000      -0.00328001      -0.00514341      -0.00533952
O        2.91246190       0.01196552       1.87333260       36      -2.00000000      -2.00000000      -0.00079573       0.00145390      -0.00539676
O        2.86703382       0.05436136       6.30400263       36      -2.00000000      -2.00000000       0.00464806      -0.00270123       0.00018006
O        0.00220185       5.87435933       6.30429321       36      -2.00000000      -2.00000000      -0.00224942      -0.00060532      -0.00098077
O        0.04623224       5.91730505       1.87760753       36      -2.00000000      -2.00000000      -0.00513205      -0.00422341      -0.00364183
40
Lattice="5.875455035606975 0.0 0.0 -0.010140288443465189 11.762841656060942 0.0 0.0049319664766290855 0.0006326093932001635 8.178969443143886" Properties=species:S:1:pos:R:3:spacegroup_kinds:I:1:field_charges:R:1:initial_charges:R:1:forces:R:3 spacegroup="P b a m" unit_cell=conventional occupancy="_JSON {\"0\": {\"Pb\": 1.0}, \"1\": {\"Pb\": 1.0}, \"2\": {\"Pb\": 1.0}, \"3\": {\"Pb\": 1.0}, \"4\": {\"Pb\": 1.0}, \"5\": {\"Pb\": 1.0}, \"6\": {\"Pb\": 1.0}, \"7\": {\"Pb\": 1.0}, \"8\": {\"Zr\": 1.0}, \"9\": {\"Zr\": 1.0}, \"10\": {\"Zr\": 1.0}, \"11\": {\"Zr\": 1.0}, \"12\": {\"Zr\": 1.0}, \"13\": {\"Zr\": 1.0}, \"14\": {\"Zr\": 1.0}, \"15\": {\"Zr\": 1.0}, \"16\": {\"O\": 1.0}, \"17\": {\"O\": 1.0}, \"18\": {\"O\": 1.0}, \"19\": {\"O\": 1.0}, \"20\": {\"O\": 1.0}, \"21\": {\"O\": 1.0}, \"22\": {\"O\": 1.0}, \"23\": {\"O\": 1.0}, \"24\": {\"O\": 1.0}, \"25\": {\"O\": 1.0}, \"26\": {\"O\": 1.0}, \"27\": {\"O\": 1.0}, \"28\": {\"O\": 1.0}, \"29\": {\"O\": 1.0}, \"30\": {\"O\": 1.0}, \"31\": {\"O\": 1.0}, \"32\": {\"O\": 1.0}, \"33\": {\"O\": 1.0}, \"34\": {\"O\": 1.0}, \"35\": {\"O\": 1.0}, \"36\": {\"O\": 1.0}, \"37\": {\"O\": 1.0}, \"38\": {\"O\": 1.0}, \"39\": {\"O\": 1.0}}" neb_image=3 energy=-39205.770256209835 polarization_c_per_m2="_JSON [0.022252004879440217, -0.04617168129585342, -0.03440817630468256]" pbc="T T T"
Pb       1.19243449       1.38622736      -0.06203885        0       2.00000000       2.00000000       0.00376580       0.00022791       0.02203019
Pb       4.70942526      10.22956772       0.00594090        0       2.00000000       2.00000000      -0.00046784       0.01900704       0.01977259
Pb       1.78500373       7.28802642       0.00979971        0       2.00000000       2.00000000      -0.00824772       0.00462560       0.01324496
Pb       4.11900520       4.36133263      -0.06451071        0       2.00000000       2.00000000      -0.00112591       0.01906122       0.02075743
Pb       1.19882287       1.46911691       4.03728387        4       2.00000000       2.00000000       0.00866285       0.01677836       0.03257068
Pb       4.62136687      10.21114631       4.07900180        4       2.00000000       2.00000000       0.00371263       0.01244118       0.01191020
Pb       1.75284463       7.33799223       4.07285647        4       2.00000000       2.00000000      -0.01032570       0.01242430       0.01997340
Pb       4.20190791       4.30650149       4.05343051        4       2.00000000       2.00000000      -0.00203864       0.01594562       0.01417573
Zr       4.35415325       1.44419540       2.02402181        8       4.00000000       4.00000000       0.00344229       0.00419718       0.00560702
Zr       1.50495338      10.27537498       6.12708282        8       4.00000000       4.00000000       0.00173773       0.00326301       0.00423767
Zr       1.51067365      10.28552501       2.04634082        8       4.00000000       4.00000000       0.00147247       0.00194095       0.00310681
Zr       4.35319513       1.43503981       6.13193631        8       4.00000000       4.00000000       0.00262252       0.00562587       0.00462183
Zr       4.47199445       7.32155806       6.13901911        8       4.00000000       4.00000000      -0.00344826       0.00598877       0.00308325
Zr       1.43660556       4.39881524       2.03833281        8       4.00000000       4.00000000      -0.00113970       0.00036178       0.00313315
Zr       1.43561243       4.40074747       6.12161161        8       4.00000000       4.00000000      -0.00119056       0.00366177       0.00463359
Zr       4.47682098       7.31676477       2.03599270        8       4.00000000       4.00000000      -0.00427291       0.00370908       0.00337214
O        4.50639671       1.86856582      -0.00172985       16      -2.00000000      -2.00000000       0.01323691       0.00612356      -0.00038210
O        1.27449147       9.95344709       0.00382214       16      -2.00000000      -2.00000000       0.00739786      -0.01233283      -0.00169922
O        4.26992542       7.74001373       0.00293909       16      -2.00000000      -2.00000000      -0.00536729       0.00339129      -0.00072791
O        1.64443533       4.05302271       0.00018659       16      -2.00000000      -2.00000000      -0.01066862      -0.01116833      -0.00152100
O        4.67121795       1.13254891       4.09275060       20      -2.00000000      -2.00000000       0.00760200      -0.02055652      -0.00208321
O        1.13408918      10.65241544       4.09283336       20      -2.00000000      -2.00000000       0.00312031       0.00718197      -0.00254450
O        4.13210037       7.03901917       4.09216237       20      -2.00000000      -2.00000000      -0.00991759      -0.02036832      -0.00202708
O        1.77815358       4.79010097       4.09376873       20      -2.00000000      -2.00000000       0.00059493       0.00580703      -0.00239434
O        3.08830024       3.05750134       2.33120701       24      -2.00000000      -2.00000000       0.01017548       0.00564914      -0.00591609
O        2.75576789       8.70590646       5.89732447       24      -2.00000000      -2.00000000       0.00332680       0.00119646      -0.01786414
O        2.74304161       8.69080655       2.29306617       24      -2.00000000      -2.00000000      -0.01088454      -0.01124479      -0.00077994
O        3.17944400       3.13255016       5.91080091       24      -2.00000000      -2.00000000      -0.01116466      -0.00976509      -0.01580305
O        5.65169861       8.99293809       5.91616054       24      -2.00000000      -2.00000000       0.01137966      -0.00998489      -0.01865637
O        0.10809272       2.88448998       2.34017086       24      -2.00000000      -2.00000000       0.01693475      -0.01762790       0.00163353
O        0.20031022       2.79873841       5.89478706       24      -2.00000000      -2.00000000      -0.00412181       0.00333855      -0.02602709
O        5.63805150       9.01273454       2.27088554       24      -2.00000000      -2.00000000      -0.00301314      -0.00121411      -0.00015526
O        2.96012254       5.89274779       1.68135578       32      -2.00000000      -2.00000000       0.00277211      -0.00980070      -0.02266823
O        2.93127052       5.91650250       6.52183147       32      -2.00000000      -2.00000000      -0.00469342      -0.00221302       0.00246780
O       -0.02828657       0.01111048       6.52685352       32      -2.00000000      -2.00000000       0.00647425      -0.00037393       0.00091081
O        0.02908812       0.06329951       1.68726894       32      -2.00000000      -2.00000000      -0.01117905      -0.01841756      -0.02714997
O        2.92164753       0.00241709       1.90053631       36      -2.00000000      -2.00000000       0.00196543      -0.00006110      -0.02340518
O        2.85148124       0.06485997       6.30801750       36      -2.00000000      -2.00000000       0.01149734      -0.00559047      -0.00127388
O        0.01621769       5.87895576       6.31346976       36      -2.00000000      -2.00000000      -0.00995984      -0.00443646      -0.00341118
O        0.07269927       5.93864679       1.89694019       36      -2.00000000      -2.00000000      -0.00866692      -0.00679164      -0.01475306
40