40
Lattice="5.871972 0.0 0.0 0.0 11.774171 0.0 0.0 0.0 8.178836" Properties=species:S:1:pos:R:3:spacegroup_kinds:I:1:field_charges:R:1:initial_charges:R:1:forces:R:3 spacegroup="P b a m" unit_cell=conventional occupancy="_JSON {\"0\": {\"Pb\": 1.0}, \"1\": {\"Pb\": 1.0}, \"2\": {\"Pb\": 1.0}, \"3\": {\"Pb\": 1.0}, \"4\": {\"Pb\": 1.0}, \"5\": {\"Pb\": 1.0}, \"6\": {\"Pb\": 1.0}, \"7\": {\"Pb\": 1.0}, \"8\": {\"Zr\": 1.0}, \"9\": {\"Zr\": 1.0}, \"10\": {\"Zr\": 1.0}, \"11\": {\"Zr\": 1.0}, \"12\": {\"Zr\": 1.0}, \"13\": {\"Zr\": 1.0}, \"14\": {\"Zr\": 1.0}, \"15\": {\"Zr\": 1.0}, \"16\": {\"O\": 1.0}, \"17\": {\"O\": 1.0}, \"18\": {\"O\": 1.0}, \"19\": {\"O\": 1.0}, \"20\": {\"O\": 1.0}, \"21\": {\"O\": 1.0}, \"22\": {\"O\": 1.0}, \"23\": {\"O\": 1.0}, \"24\": {\"O\": 1.0}, \"25\": {\"O\": 1.0}, \"26\": {\"O\": 1.0}, \"27\": {\"O\": 1.0}, \"28\": {\"O\": 1.0}, \"29\": {\"O\": 1.0}, \"30\": {\"O\": 1.0}, \"31\": {\"O\": 1.0}, \"32\": {\"O\": 1.0}, \"33\": {\"O\": 1.0}, \"34\": {\"O\": 1.0}, \"35\": {\"O\": 1.0}, \"36\": {\"O\": 1.0}, \"37\": {\"O\": 1.0}, \"38\": {\"O\": 1.0}, \"39\": {\"O\": 1.0}}" neb_image=0 energy=-39205.764739708866 polarization_c_per_m2="_JSON [-0.0012611573750599988, 0.0349032942069816, -1.3526432333244794e-15]" pbc="T T T"
Pb       1.17373646       1.45287285      -0.00000000        0       2.00000000       2.00000000       0.01811033      -0.02203254      -0.00000000
Pb       4.69823554      10.32129815      -0.00000000        0       2.00000000       2.00000000       0.02886545      -0.02506414      -0.00000000
Pb       1.76224954       7.33995835      -0.00000000        0       2.00000000       2.00000000       0.02886545      -0.02203254      -0.00000000
Pb       4.10972246       4.43421265      -0.00000000        0       2.00000000       2.00000000       0.01811033      -0.02506414      -0.00000000
Pb       1.22777814       1.51267559       4.08941800        4       2.00000000       2.00000000       0.01833476      -0.01928032       0.00000000
Pb       4.64419386      10.26149541       4.08941800        4       2.00000000       2.00000000       0.02864101      -0.02781637       0.00000000
Pb       1.70820786       7.39976109       4.08941800        4       2.00000000       2.00000000       0.02864101      -0.01928032       0.00000000
Pb       4.16376414       4.37440991       4.08941800        4       2.00000000       2.00000000       0.01833476      -0.02781637       0.00000000
Zr       4.35630128       1.46381254       2.04209901        8       4.00000000       4.00000000       0.04074979      -0.05115421       0.00128299
Zr       1.51567072      10.31035846       6.13673699        8       4.00000000       4.00000000       0.05320176      -0.04303916      -0.00128299
Zr       1.51567072      10.31035846       2.04209901        8       4.00000000       4.00000000       0.05320176      -0.04303916       0.00128299
Zr       4.35630128       1.46381254       6.13673699        8       4.00000000       4.00000000       0.04074979      -0.05115421      -0.00128299
Zr       4.45165672       7.35089804       6.13673699        8       4.00000000       4.00000000       0.05320176      -0.05115421      -0.00128299
Zr       1.42031528       4.42327296       2.04209901        8       4.00000000       4.00000000       0.04074979      -0.04303916       0.00128299
Zr       1.42031528       4.42327296       6.13673699        8       4.00000000       4.00000000       0.04074979      -0.04303916      -0.00128299
Zr       4.45165672       7.35089804       2.04209901        8       4.00000000       4.00000000       0.05320176      -0.05115421       0.00128299
O        4.55672239       1.85661981      -0.00000000       16      -2.00000000      -2.00000000      -0.01967453       0.01834648       0.00000000
O        1.31524961       9.91755119      -0.00000000       16      -2.00000000      -2.00000000      -0.02730124       0.02875020       0.00000000
O        4.25123561       7.74370531      -0.00000000       16      -2.00000000      -2.00000000      -0.02730124       0.01834648       0.00000000
O        1.62073639       4.03046569      -0.00000000       16      -2.00000000      -2.00000000      -0.01967453       0.02875020       0.00000000
O        4.70256932       1.10550087       4.08941800       20      -2.00000000      -2.00000000      -0.01760133       0.03098644      -0.00000000
O        1.16940268      10.66867013       4.08941800       20      -2.00000000      -2.00000000      -0.02937445       0.01611025      -0.00000000
O        4.10538868       6.99258637       4.08941800       20      -2.00000000      -2.00000000      -0.02937445       0.03098644      -0.00000000
O        1.76658332       4.78158463       4.08941800       20      -2.00000000      -2.00000000      -0.01760133       0.01611025      -0.00000000
O        3.12999853       3.08379167       2.30409508       24      -2.00000000      -2.00000000      -0.03345472       0.03894801      -0.00556508
O        2.74197347       8.69037933       5.87474092       24      -2.00000000      -2.00000000      -0.01352106       0.00814867       0.00556508
O        2.74197347       8.69037933       2.30409508       24      -2.00000000      -2.00000000      -0.01352106       0.00814867      -0.00556508
O        3.12999853       3.08379167       5.87474092       24      -2.00000000      -2.00000000      -0.03345472       0.03894801       0.00556508
O        5.67795947       8.97087717       5.87474092       24      -2.00000000      -2.00000000      -0.01352106       0.03894801       0.00556508
O        0.19401253       2.80329383       2.30409508       24      -2.00000000      -2.00000000      -0.03345472       0.00814867      -0.00556508
O        0.19401253       2.80329383       5.87474092       24      -2.00000000      -2.00000000      -0.03345472       0.00814867       0.00556508
O        5.67795947       8.97087717       2.30409508       24      -2.00000000      -2.00000000      -0.01352106       0.03894801      -0.00556508
O        2.93598600       5.88708550       1.65175084       32      -2.00000000      -2.00000000      -0.02348789       0.02354834       0.00096873
O        2.93598600       5.88708550       6.52708516       32      -2.00000000      -2.00000000      -0.02348789       0.02354834      -0.00096873
O        0.00000000       0.00000000       6.52708516       32      -2.00000000      -2.00000000      -0.02348789       0.02354834      -0.00096873
O       -0.00000000       0.00000000       1.65175084       32      -2.00000000      -2.00000000      -0.02348789       0.02354834       0.00096873
O        2.93598600       0.00000000       1.87160782       36      -2.00000000      -2.00000000      -0.02348789       0.02354834       0.00119428
O        2.93598600       0.00000000       6.30722818       36      -2.00000000      -2.00000000      -0.02348789       0.02354834      -0.00119428
O        0.00000000       5.88708550       6.30722818       36      -2.00000000      -2.00000000      -0.02348789       0.02354834      -0.00119428
O        0.00000000       5.88708550       1.87160782       36      -2.00000000      -2.00000000      -0.02348789       0.02354834       0.00119428
40
Lattice="5.869489442446956 0.0 0.0 -0.004685873565660055 11.765887263911061 0.0 2.8766172196769453e-05 8.307695977044564e-07 8.171544898349415" Properties=species:S:1:pos:R:3:spacegroup_kinds:I:1:field_charges:R:1:initial_charges:R:1:forces:R:3 spacegroup="P b a m" unit_cell=conventional occupancy="_JSON {\"0\": {\"Pb\": 1.0}, \"1\": {\"Pb\": 1.0}, \"2\": {\"Pb\": 1.0}, \"3\": {\"Pb\": 1.0}, \"4\": {\"Pb\": 1.0}, \"5\": {\"Pb\": 1.0}, \"6\": {\"Pb\": 1.0}, \"7\": {\"Pb\": 1.0}, \"8\": {\"Zr\": 1.0}, \"9\": {\"Zr\": 1.0}, \"10\": {\"Zr\": 1.0}, \"11\": {\"Zr\": 1.0}, \"12\": {\"Zr\": 1.0}, \"13\": {\"Zr\": 1.0}, \"14\": {\"Zr\": 1.0}, \"15\": {\"Zr\": 1.0}, \"16\": {\"O\": 1.0}, \"17\": {\"O\": 1.0}, \"18\": {\"O\": 1.0}, \"19\": {\"O\": 1.0}, \"20\": {\"O\": 1.0}, \"21\": {\"O\": 1.0}, \"22\": {\"O\": 1.0}, \"23\": {\"O\": 1.0}, \"24\": {\"O\": 1.0}, \"25\": {\"O\": 1.0}, \"26\": {\"O\": 1.0}, \"27\": {\"O\": 1.0}, \"28\": {\"O\": 1.0}, \"29\": {\"O\": 1.0}, \"30\": {\"O\": 1.0}, \"31\": {\"O\": 1.0}, \"32\": {\"O\": 1.0}, \"33\": {\"O\": 1.0}, \"34\": {\"O\": 1.0}, \"35\": {\"O\": 1.0}, \"36\": {\"O\": 1.0}, \"37\": {\"O\": 1.0}, \"38\": {\"O\": 1.0}, \"39\": {\"O\": 1.0}}" neb_image=1 energy=-39205.78197944313 polarization_c_per_m2="_JSON [0.020174842480639246, -0.006929605731706483, -1.037767361966114e-05]" pbc="T T T"
Pb       1.19170689       1.41348965      -0.00027796        0       2.00000000       2.00000000       0.00428984      -0.00867845       0.00002492
Pb       4.70490690      10.27855817       0.00027632        0       2.00000000       2.00000000       0.00284818      -0.00799703      -0.00002800
Pb       1.76982080       7.30695844       0.00026795        0       2.00000000       2.00000000       0.00252273      -0.00630909      -0.00002713
Pb       4.11713350       4.39904720      -0.00030467        0       2.00000000       2.00000000       0.00243531      -0.00728017       0.00002721
Pb       1.22266731       1.49276735       4.08567157        4       2.00000000       2.00000000      -0.00093661      -0.00426915       0.00000688
Pb       4.63396568      10.23421395       4.08585571        4       2.00000000       2.00000000      -0.00096790      -0.00455980      -0.00000929
Pb       1.72842197       7.36612109       4.08586027        4       2.00000000       2.00000000       0.00540798      -0.00641041      -0.00000955
Pb       4.18539871       4.34271079       4.08567608        4       2.00000000       2.00000000       0.00567221      -0.00644900       0.00000718
Zr       4.35590137       1.45185696       2.03679817        8       4.00000000       4.00000000       0.00042486      -0.00247482      -0.00077581
Zr       1.51444320      10.29143652       6.12771022        8       4.00000000       4.00000000       0.00077448      -0.00262445      -0.00081166
Zr       1.51447772      10.29149840       2.04388195        8       4.00000000       4.00000000       0.00076989      -0.00263042       0.00080628
Zr       4.35587107       1.45179051       6.13468634        8       4.00000000       4.00000000       0.00042954      -0.00246835       0.00078006
Zr       4.45927832       7.33218874       6.13421525        8       4.00000000       4.00000000       0.00281216      -0.00307079       0.00066124
Zr       1.42816620       4.40709969       2.04316104        8       4.00000000       4.00000000       0.00229149      -0.00293609       0.00066173
Zr       1.42812884       4.40716524       6.12832750        8       4.00000000       4.00000000       0.00229682      -0.00294277      -0.00065711
Zr       4.45931488       7.33212077       2.03738195        8       4.00000000       4.00000000       0.00280733      -0.00306396      -0.00066640
O        4.53378071       1.87308779      -0.00001507       16      -2.00000000      -2.00000000      -0.00461184       0.00399390       0.00000128
O        1.29473096       9.93158151       0.00001336       16      -2.00000000      -2.00000000      -0.00362610       0.00473243      -0.00000124
O        4.25038517       7.74399928       0.00001525       16      -2.00000000      -2.00000000       0.00095253       0.00128753      -0.00000123
O        1.62320443       4.03696721      -0.00001435       16      -2.00000000      -2.00000000       0.00111883       0.00211141       0.00000147
O        4.68375919       1.11439992       4.08577875       20      -2.00000000      -2.00000000      -0.00371853       0.00219454      -0.00000051
O        1.14955287      10.66877779       4.08576826       20      -2.00000000      -2.00000000      -0.00340460       0.00173399       0.00000071
O        4.10823738       7.00361451       4.08576879       20      -2.00000000      -2.00000000       0.00169539       0.00358411       0.00000074
O        1.76970870       4.78885748       4.08577968       20      -2.00000000      -2.00000000       0.00131537       0.00236880      -0.00000049
O        3.13187944       3.09436869       2.29842753       24      -2.00000000      -2.00000000       0.00109280       0.00296705      -0.00087224
O        2.74605271       8.69563379       5.86937909       24      -2.00000000      -2.00000000       0.00194691       0.00255773      -0.00001984
O        2.74566523       8.69526727       2.30199335       24      -2.00000000      -2.00000000       0.00198500       0.00259411       0.00003940
O        3.13229375       3.09475895       5.87335095       24      -2.00000000      -2.00000000       0.00105804       0.00293223       0.00085296
O        5.66060816       8.98137664       5.88274684       24      -2.00000000      -2.00000000      -0.00259892       0.00382179       0.00298787
O        0.17630738       2.81642262       2.31262477       24      -2.00000000      -2.00000000      -0.00365089       0.00333491       0.00233306
O        0.17671546       2.81603512       5.85911602       24      -2.00000000      -2.00000000      -0.00368512       0.00336840      -0.00235032
O        5.66022273       8.98173273       2.28860264       24      -2.00000000      -2.00000000      -0.00256099       0.00378582      -0.00296729
O        2.92651763       5.90206310       1.65372399       32      -2.00000000      -2.00000000      -0.00138576       0.00437747       0.00079756
O        2.92618281       5.90234215       6.51780856       32      -2.00000000      -2.00000000      -0.00135192       0.00435093      -0.00079554
O       -0.00719743       0.01273954       6.52020900       32      -2.00000000      -2.00000000      -0.00162048       0.00289009      -0.00024133
O       -0.00687098       0.01300987       1.65135531       32      -2.00000000      -2.00000000      -0.00165212       0.00286547       0.00024211
O        2.90137689       0.02558925       1.86866635       36      -2.00000000      -2.00000000      -0.00767335       0.00589749      -0.00029922
O        2.90086927       0.02607124       6.30286326       36      -2.00000000      -2.00000000      -0.00762390       0.00585204       0.00030130
O        0.00640861       5.88388713       6.30125992       36      -2.00000000      -2.00000000       0.00208644       0.00030451      -0.00008281
O        0.00693005       5.88437703       1.87030844       36      -2.00000000      -2.00000000       0.00203489       0.00025799       0.00008304
40
Lattice="5.86999090191991 0.0 0.0 -0.007435427466449716 11.765222475844674 0.0 0.002851352482990822 0.00012507138657591576 8.172377558273075" Properties=species:S:1:pos:R:3:spacegroup_kinds:I:1:field_charges:R:1:initial_charges:R:1:forces:R:3 spacegroup="P b a m" unit_cell=conventional occupancy="_JSON {\"0\": {\"Pb\": 1.0}, \"1\": {\"Pb\": 1.0}, \"2\": {\"Pb\": 1.0}, \"3\": {\"Pb\": 1.0}, \"4\": {\"Pb\": 1.0}, \"5\": {\"Pb\": 1.0}, \"6\": {\"Pb\": 1.0}, \"7\": {\"Pb\": 1.0}, \"8\": {\"Zr\": 1.0}, \"9\": {\"Zr\": 1.0}, \"10\": {\"Zr\": 1.0}, \"11\": {\"Zr\": 1.0}, \"12\": {\"Zr\": 1.0}, \"13\": {\"Zr\": 1.0}, \"14\": {\"Zr\": 1.0}, \"15\": {\"Zr\": 1.0}, \"16\": {\"O\": 1.0}, \"17\": {\"O\": 1.0}, \"18\": {\"O\": 1.0}, \"19\": {\"O\": 1.0}, \"20\": {\"O\": 1.0}, \"21\": {\"O\": 1.0}, \"22\": {\"O\": 1.0}, \"23\": {\"O\": 1.0}, \"24\": {\"O\": 1.0}, \"25\": {\"O\": 1.0}, \"26\": {\"O\": 1.0}, \"27\": {\"O\": 1.0}, \"28\": {\"O\": 1.0}, \"29\": {\"O\": 1.0}, \"30\": {\"O\": 1.0}, \"31\": {\"O\": 1.0}, \"32\": {\"O\": 1.0}, \"33\": {\"O\": 1.0}, \"34\": {\"O\": 1.0}, \"35\": {\"O\": 1.0}, \"36\": {\"O\": 1.0}, \"37\": {\"O\": 1.0}, \"38\": {\"O\": 1.0}, \"39\": {\"O\": 1.0}}" neb_image=2 energy=-39205.781851928594 polarization_c_per_m2="_JSON [0.023224588056745554, -0.021931095334633725, -0.003332052472170055]" pbc="T T T"
Pb       1.19743218       1.39819426      -0.03029741        0       2.00000000       2.00000000       0.00003018       0.00038390       0.00423242
Pb       4.70351201      10.26491263       0.02669559        0       2.00000000       2.00000000      -0.00032092       0.00170767      -0.00156944
Pb       1.77036262       7.29607109       0.02589011        0       2.00000000       2.00000000      -0.00029795       0.00101000      -0.00175068
Pb       4.11799819       4.38437189      -0.03328193        0       2.00000000       2.00000000      -0.00021867       0.00146828       0.00392972
Pb       1.21754979       1.48500012       4.07307074        4       2.00000000       2.00000000       0.00094761       0.00115517       0.00274139
Pb       4.62818682      10.22522564       4.09325716        4       2.00000000       2.00000000       0.00070173       0.00068988       0.00011992
Pb       1.73794404       7.35613129       4.09378302        4       2.00000000       2.00000000      -0.00099109       0.00078428       0.00002287
Pb       4.19436594       4.33290040       4.07420309        4       2.00000000       2.00000000      -0.00011344       0.00122845       0.00213109
Zr       4.35657172       1.45181231       2.03207853        8       4.00000000       4.00000000       0.00009215       0.00017411       0.00079270
Zr       1.50987251      10.28422413       6.12885120        8       4.00000000       4.00000000       0.00052497       0.00060468       0.00015517
Zr       1.51360274      10.29056889       2.04754401        8       4.00000000       4.00000000      -0.00012907      -0.00011298      -0.00014134
Zr       4.35381549       1.44505134       6.13268185        8       4.00000000       4.00000000       0.00051881       0.00079695       0.00061791
Zr       4.46142511       7.33087394       6.13848299        8       4.00000000       4.00000000      -0.00008213       0.00012005      -0.00017268
Zr       1.43322168       4.40029605       2.04119143        8       4.00000000       4.00000000      -0.00026162       0.00044855       0.00046142
Zr       1.42973221       4.40660126       6.12451618        8       4.00000000       4.00000000      -0.00002008       0.00004597       0.00062927
Zr       4.46527815       7.32415954       2.03889612        8       4.00000000       4.00000000      -0.00057939       0.00059720      -0.00004556
O        4.52135912       1.87559861      -0.00165697       16      -2.00000000      -2.00000000       0.00197058       0.00049126       0.00018326
O        1.28781957       9.93828352       0.00145550       16      -2.00000000      -2.00000000      -0.00003026      -0.00108010      -0.00024588
O        4.25562577       7.74374226       0.00176288       16      -2.00000000      -2.00000000      -0.00033249      -0.00003181      -0.00024734
O        1.62897838       4.04077691      -0.00138579       16      -2.00000000      -2.00000000      -0.00093934      -0.00082044       0.00007807
O        4.67774875       1.11739027       4.08693512       20      -2.00000000      -2.00000000       0.00048672      -0.00110920      -0.00014951
O        1.14410835      10.66914013       4.08606343       20      -2.00000000      -2.00000000       0.00066325       0.00043592      -0.00013446
O        4.11603638       7.00949386       4.08618859       20      -2.00000000      -2.00000000      -0.00116020      -0.00100531      -0.00013794
O        1.77291658       4.78980830       4.08715294       20      -2.00000000      -2.00000000       0.00027629       0.00017353      -0.00016478
O        3.11232616       3.07728451       2.31082776       24      -2.00000000      -2.00000000       0.00314134       0.00261710      -0.00188391
O        2.77035651       8.72001457       5.86243888       24      -2.00000000      -2.00000000      -0.00157643      -0.00174108       0.00018527
O        2.73325947       8.68425466       2.29523458       24      -2.00000000      -2.00000000       0.00072213       0.00083424       0.00006466
O        3.15863448       3.12002166       5.88851553       24      -2.00000000      -2.00000000      -0.00270173      -0.00255150      -0.00174569
O        5.67633692       8.96822829       5.87874953       24      -2.00000000      -2.00000000      -0.00066456       0.00058733      -0.00081699
O        0.14782774       2.84433292       2.32570956       24      -2.00000000      -2.00000000       0.00389212      -0.00377647      -0.00078751
O        0.19354549       2.80104192       5.86859597       24      -2.00000000      -2.00000000      -0.00215335       0.00202507      -0.00251335
O        5.63941845       9.00272652       2.27572518       24      -2.00000000      -2.00000000       0.00156920      -0.00189373       0.00128893
O        2.94435598       5.89359287       1.65777399       32      -2.00000000      -2.00000000      -0.00199176       0.00100767      -0.00120529
O        2.91023665       5.92213058       6.51458798       32      -2.00000000      -2.00000000       0.00113795      -0.00149796       0.00037162
O       -0.02668153       0.00255017       6.52145777       32      -2.00000000      -2.00000000       0.00192124       0.00089684      -0.00013198
O        0.00787232       0.03134755       1.65534937       32      -2.00000000      -2.00000000      -0.00249131      -0.00273931      -0.00152967
O        2.91500899       0.01082420       1.86940098       36      -2.00000000      -2.00000000      -0.00253385       0.00260674      -0.00211381
O        2.86237279       0.06075611       6.30242112       36      -2.00000000      -2.00000000       0.00348517      -0.00278052       0.00081407
O       -0.01101009       5.86286352       6.30340734       36      -2.00000000      -2.00000000       0.00122995       0.00154832      -0.00075983
O        0.04229574       5.91340676       1.87376681       36      -2.00000000      -2.00000000      -0.00372174      -0.00329872      -0.00057212
40
Lattice="5.871745869324359 0.0 0.0 -0.002635816795570767 11.761962933874356 0.0 0.0054501863340926885 0.00027122553647873323 8.176577131370733" Properties=species:S:1:pos:R:3:spacegroup_kinds:I:1:field_charges:R:1:initial_charges:R:1:forces:R:3 spacegroup="P b a m" unit_cell=conventional occupancy="_JSON {\"0\": {\"Pb\": 1.0}, \"1\": {\"Pb\": 1.0}, \"2\": {\"Pb\": 1.0}, \"3\": {\"Pb\": 1.0}, \"4\": {\"Pb\": 1.0}, \"5\": {\"Pb\": 1.0}, \"6\": {\"Pb\": 1.0}, \"7\": {\"Pb\": 1.0}, \"8\": {\"Zr\": 1.0}, \"9\": {\"Zr\": 1.0}, \"10\": {\"Zr\": 1.0}, \"11\": {\"Zr\": 1.0}, \"12\": {\"Zr\": 1.0}, \"13\": {\"Zr\": 1.0}, \"14\": {\"Zr\": 1.0}, \"15\": {\"Zr\": 1.0}, \"16\": {\"O\": 1.0}, \"17\": {\"O\": 1.0}, \"18\": {\"O\": 1.0}, \"19\": {\"O\": 1.0}, \"20\": {\"O\": 1.0}, \"21\": {\"O\": 1.0}, \"22\": {\"O\": 1.0}, \"23\": {\"O\": 1.0}, \"24\": {\"O\": 1.0}, \"25\": {\"O\": 1.0}, \"26\": {\"O\": 1.0}, \"27\": {\"O\": 1.0}, \"28\": {\"O\": 1.0}, \"29\": {\"O\": 1.0}, \"30\": {\"O\": 1.0}, \"31\": {\"O\": 1.0}, \"32\": {\"O\": 1.0}, \"33\": {\"O\": 1.0}, \"34\": {\"O\": 1.0}, \"35\": {\"O\": 1.0}, \"36\": {\"O\": 1.0}, \"37\": {\"O\": 1.0}, \"38\": {\"O\": 1.0}, \"39\": {\"O\": 1.0}}" neb_image=3 energy=-39205.776045985614 polarization_c_per_m2="_JSON [0.022231524242953615, -0.03301185272936869, -0.01626567500258753]" pbc="T T T"
Pb       1.19854360       1.39342854      -0.06686678        0       2.00000000       2.00000000      -0.00112188       0.00160143       0.01544351
Pb       4.71135772      10.24611011       0.04020802        0       2.00000000       2.00000000      -0.00195926       0.01115659       0.00563362
Pb       1.77765615       7.28803049       0.04163933        0       2.00000000       2.00000000      -0.00212544       0.00746995       0.00071391
Pb       4.12333311       4.37378677      -0.06769914        0       2.00000000       2.00000000      -0.00095186       0.01035534       0.01128856
Pb       1.21078409       1.47603843       4.05121477        4       2.00000000       2.00000000       0.00509508       0.00961769       0.01683049
Pb       4.62874053      10.21880685       4.09476483        4       2.00000000       2.00000000       0.00405239       0.00538708       0.00489623
Pb       1.74925461       7.34663520       4.09598686        4       2.00000000       2.00000000      -0.00666662       0.00486654       0.00417315
Pb       4.19886819       4.31961944       4.05801436        4       2.00000000       2.00000000      -0.00054310       0.00892135       0.00832159
Zr       4.35833652       1.44982195       2.02597896        8       4.00000000       4.00000000       0.00122856       0.00243548       0.00380743
Zr       1.51181389      10.27598055       6.13080170        8       4.00000000       4.00000000       0.00153693       0.00217732       0.00216152
Zr       1.51973853      10.28842670       2.04977911        8       4.00000000       4.00000000       0.00026393       0.00102714       0.00070608
Zr       4.35326049       1.43784039       6.13076037        8       4.00000000       4.00000000       0.00167451       0.00316462       0.00261593
Zr       4.46850778       7.32832577       6.14274818        8       4.00000000       4.00000000      -0.00161855       0.00273403       0.00026240
Zr       1.43867667       4.39566022       2.03811151        8       4.00000000       4.00000000      -0.00024400       0.00116251       0.00145381
Zr       1.43418952       4.40546781       6.12235495        8       4.00000000       4.00000000      -0.00052461       0.00203425       0.00267915
Zr       4.47553041       7.31730984       2.04077895        8       4.00000000       4.00000000      -0.00242621       0.00217572       0.00094292
O        4.50725443       1.87055276      -0.00319066       16      -2.00000000      -2.00000000       0.01252569       0.00352279       0.00024105
O        1.29098253       9.94470664       0.00365702       16      -2.00000000      -2.00000000       0.00099000      -0.00749886      -0.00103760
O        4.26480606       7.74185547       0.00395685       16      -2.00000000      -2.00000000      -0.00111774      -0.00034617      -0.00073262
O        1.63842103       4.04592410      -0.00203733       16      -2.00000000      -2.00000000      -0.00651921      -0.00584748      -0.00034641
O        4.67634077       1.12414397       4.09024138       20      -2.00000000      -2.00000000       0.00324741      -0.00988811      -0.00091324
O        1.14478099      10.65990794       4.08928995       20      -2.00000000      -2.00000000       0.00353956       0.00274125      -0.00117404
O        4.13007129       7.01936271       4.08935297       20      -2.00000000      -2.00000000      -0.00719892      -0.00698303      -0.00097754
O        1.77448914       4.79011232       4.09061556       20      -2.00000000      -2.00000000       0.00183435       0.00201842      -0.00081809
O        3.08436294       3.04997256       2.33156320       24      -2.00000000      -2.00000000       0.00903594       0.00614739      -0.00514086
O        2.78661440       8.72886001       5.86834158       24      -2.00000000      -2.00000000      -0.00265786      -0.00391180      -0.00209474
O        2.72741671       8.66984085       2.29078930       24      -2.00000000      -2.00000000      -0.00372767      -0.00317095      -0.00346317
O        3.18248450       3.13767723       5.90357595       24      -2.00000000      -2.00000000      -0.00760395      -0.00740248      -0.00717966
O        5.68635864       8.96366292       5.89024413       24      -2.00000000      -2.00000000       0.00344413      -0.00355623      -0.00997746
O        0.11304285       2.87963565       2.33663292       24      -2.00000000      -2.00000000       0.01373021      -0.01364669       0.00112472
O        0.21204415       2.78617024       5.89008968       24      -2.00000000      -2.00000000      -0.00411545       0.00397715      -0.01436143
O        5.62822907       9.02008764       2.26421425       24      -2.00000000      -2.00000000       0.00153418      -0.00393475       0.00317801
O        2.97061724       5.87864318       1.66735252       32      -2.00000000      -2.00000000      -0.00252837      -0.00180831      -0.00849798
O        2.91026896       5.92946279       6.51615645       32      -2.00000000      -2.00000000       0.00073294      -0.00432021       0.00218289
O       -0.03813716      -0.00254562       6.52509683       32      -2.00000000      -2.00000000       0.00488273       0.00028073      -0.00016975
O        0.03347877       0.05800937       1.67033014       32      -2.00000000      -2.00000000      -0.00967093      -0.01295077      -0.01257970
O        2.94187927      -0.01556899       1.88797417       36      -2.00000000      -2.00000000      -0.00414344       0.00514116      -0.01488450
O        2.83832962       0.08139567       6.29949737       36      -2.00000000      -2.00000000       0.01005344      -0.00681763       0.00226906
O       -0.01366846       5.85165537       6.31219230       36      -2.00000000      -2.00000000      -0.00259517       0.00012350      -0.00433075
O        0.08212438       5.94485813       1.88072133       36      -2.00000000      -2.00000000      -0.00934176      -0.00815594      -0.00224649
40