40
Lattice="5.871972 0.0 0.0 0.0 11.774171 0.0 0.0 0.0 8.178836" Properties=species:S:1:pos:R:3:spacegroup_kinds:I:1:field_charges:R:1:initial_charges:R:1:forces:R:3 spacegroup="P b a m" unit_cell=conventional occupancy="_JSON {\"0\": {\"Pb\": 1.0}, \"1\": {\"Pb\": 1.0}, \"2\": {\"Pb\": 1.0}, \"3\": {\"Pb\": 1.0}, \"4\": {\"Pb\": 1.0}, \"5\": {\"Pb\": 1.0}, \"6\": {\"Pb\": 1.0}, \"7\": {\"Pb\": 1.0}, \"8\": {\"Zr\": 1.0}, \"9\": {\"Zr\": 1.0}, \"10\": {\"Zr\": 1.0}, \"11\": {\"Zr\": 1.0}, \"12\": {\"Zr\": 1.0}, \"13\": {\"Zr\": 1.0}, \"14\": {\"Zr\": 1.0}, \"15\": {\"Zr\": 1.0}, \"16\": {\"O\": 1.0}, \"17\": {\"O\": 1.0}, \"18\": {\"O\": 1.0}, \"19\": {\"O\": 1.0}, \"20\": {\"O\": 1.0}, \"21\": {\"O\": 1.0}, \"22\": {\"O\": 1.0}, \"23\": {\"O\": 1.0}, \"24\": {\"O\": 1.0}, \"25\": {\"O\": 1.0}, \"26\": {\"O\": 1.0}, \"27\": {\"O\": 1.0}, \"28\": {\"O\": 1.0}, \"29\": {\"O\": 1.0}, \"30\": {\"O\": 1.0}, \"31\": {\"O\": 1.0}, \"32\": {\"O\": 1.0}, \"33\": {\"O\": 1.0}, \"34\": {\"O\": 1.0}, \"35\": {\"O\": 1.0}, \"36\": {\"O\": 1.0}, \"37\": {\"O\": 1.0}, \"38\": {\"O\": 1.0}, \"39\": {\"O\": 1.0}}" neb_image=0 energy=-39205.764739708866 polarization_c_per_m2="_JSON [-0.0012611573750599988, 0.0349032942069816, -1.3526432333244794e-15]" pbc="T T T"
Pb       1.17373646       1.45287285      -0.00000000        0       2.00000000       2.00000000       0.01811033      -0.02203254      -0.00000000
Pb       4.69823554      10.32129815      -0.00000000        0       2.00000000       2.00000000       0.02886545      -0.02506414      -0.00000000
Pb       1.76224954       7.33995835      -0.00000000        0       2.00000000       2.00000000       0.02886545      -0.02203254      -0.00000000
Pb       4.10972246       4.43421265      -0.00000000        0       2.00000000       2.00000000       0.01811033      -0.02506414      -0.00000000
Pb       1.22777814       1.51267559       4.08941800        4       2.00000000       2.00000000       0.01833476      -0.01928032       0.00000000
Pb       4.64419386      10.26149541       4.08941800        4       2.00000000       2.00000000       0.02864101      -0.02781637       0.00000000
Pb       1.70820786       7.39976109       4.08941800        4       2.00000000       2.00000000       0.02864101      -0.01928032       0.00000000
Pb       4.16376414       4.37440991       4.08941800        4       2.00000000       2.00000000       0.01833476      -0.02781637       0.00000000
Zr       4.35630128       1.46381254       2.04209901        8       4.00000000       4.00000000       0.04074979      -0.05115421       0.00128299
Zr       1.51567072      10.31035846       6.13673699        8       4.00000000       4.00000000       0.05320176      -0.04303916      -0.00128299
Zr       1.51567072      10.31035846       2.04209901        8       4.00000000       4.00000000       0.05320176      -0.04303916       0.00128299
Zr       4.35630128       1.46381254       6.13673699        8       4.00000000       4.00000000       0.04074979      -0.05115421      -0.00128299
Zr       4.45165672       7.35089804       6.13673699        8       4.00000000       4.00000000       0.05320176      -0.05115421      -0.00128299
Zr       1.42031528       4.42327296       2.04209901        8       4.00000000       4.00000000       0.04074979      -0.04303916       0.00128299
Zr       1.42031528       4.42327296       6.13673699        8       4.00000000       4.00000000       0.04074979      -0.04303916      -0.00128299
Zr       4.45165672       7.35089804       2.04209901        8       4.00000000       4.00000000       0.05320176      -0.05115421       0.00128299
O        4.55672239       1.85661981      -0.00000000       16      -2.00000000      -2.00000000      -0.01967453       0.01834648       0.00000000
O        1.31524961       9.91755119      -0.00000000       16      -2.00000000      -2.00000000      -0.02730124       0.02875020       0.00000000
O        4.25123561       7.74370531      -0.00000000       16      -2.00000000      -2.00000000      -0.02730124       0.01834648       0.00000000
O        1.62073639       4.03046569      -0.00000000       16      -2.00000000      -2.00000000      -0.01967453       0.02875020       0.00000000
O        4.70256932       1.10550087       4.08941800       20      -2.00000000      -2.00000000      -0.01760133       0.03098644      -0.00000000
O        1.16940268      10.66867013       4.08941800       20      -2.00000000      -2.00000000      -0.02937445       0.01611025      -0.00000000
O        4.10538868       6.99258637       4.08941800       20      -2.00000000      -2.00000000      -0.02937445       0.03098644      -0.00000000
O        1.76658332       4.78158463       4.08941800       20      -2.00000000      -2.00000000      -0.01760133       0.01611025      -0.00000000
O        3.12999853       3.08379167       2.30409508       24      -2.00000000      -2.00000000      -0.03345472       0.03894801      -0.00556508
O        2.74197347       8.69037933       5.87474092       24      -2.00000000      -2.00000000      -0.01352106       0.00814867       0.00556508
O        2.74197347       8.69037933       2.30409508       24      -2.00000000      -2.00000000      -0.01352106       0.00814867      -0.00556508
O        3.12999853       3.08379167       5.87474092       24      -2.00000000      -2.00000000      -0.03345472       0.03894801       0.00556508
O        5.67795947       8.97087717       5.87474092       24      -2.00000000      -2.00000000      -0.01352106       0.03894801       0.00556508
O        0.19401253       2.80329383       2.30409508       24      -2.00000000      -2.00000000      -0.03345472       0.00814867      -0.00556508
O        0.19401253       2.80329383       5.87474092       24      -2.00000000      -2.00000000      -0.03345472       0.00814867       0.00556508
O        5.67795947       8.97087717       2.30409508       24      -2.00000000      -2.00000000      -0.01352106       0.03894801      -0.00556508
O        2.93598600       5.88708550       1.65175084       32      -2.00000000      -2.00000000      -0.02348789       0.02354834       0.00096873
O        2.93598600       5.88708550       6.52708516       32      -2.00000000      -2.00000000      -0.02348789       0.02354834      -0.00096873
O        0.00000000       0.00000000       6.52708516       32      -2.00000000      -2.00000000      -0.02348789       0.02354834      -0.00096873
O       -0.00000000       0.00000000       1.65175084       32      -2.00000000      -2.00000000      -0.02348789       0.02354834       0.00096873
O        2.93598600       0.00000000       1.87160782       36      -2.00000000      -2.00000000      -0.02348789       0.02354834       0.00119428
O        2.93598600       0.00000000       6.30722818       36      -2.00000000      -2.00000000      -0.02348789       0.02354834      -0.00119428
O        0.00000000       5.88708550       6.30722818       36      -2.00000000      -2.00000000      -0.02348789       0.02354834      -0.00119428
O        0.00000000       5.88708550       1.87160782       36      -2.00000000      -2.00000000      -0.02348789       0.02354834       0.00119428
40
Lattice="5.869459814501663 0.0 0.0 -0.0039018625494607407 11.765813485217748 0.0 0.00016327585600912434 9.551538082937357e-06 8.171596983568207" Properties=species:S:1:pos:R:3:spacegroup_kinds:I:1:field_charges:R:1:initial_charges:R:1:forces:R:3 spacegroup="P b a m" unit_cell=conventional occupancy="_JSON {\"0\": {\"Pb\": 1.0}, \"1\": {\"Pb\": 1.0}, \"2\": {\"Pb\": 1.0}, \"3\": {\"Pb\": 1.0}, \"4\": {\"Pb\": 1.0}, \"5\": {\"Pb\": 1.0}, \"6\": {\"Pb\": 1.0}, \"7\": {\"Pb\": 1.0}, \"8\": {\"Zr\": 1.0}, \"9\": {\"Zr\": 1.0}, \"10\": {\"Zr\": 1.0}, \"11\": {\"Zr\": 1.0}, \"12\": {\"Zr\": 1.0}, \"13\": {\"Zr\": 1.0}, \"14\": {\"Zr\": 1.0}, \"15\": {\"Zr\": 1.0}, \"16\": {\"O\": 1.0}, \"17\": {\"O\": 1.0}, \"18\": {\"O\": 1.0}, \"19\": {\"O\": 1.0}, \"20\": {\"O\": 1.0}, \"21\": {\"O\": 1.0}, \"22\": {\"O\": 1.0}, \"23\": {\"O\": 1.0}, \"24\": {\"O\": 1.0}, \"25\": {\"O\": 1.0}, \"26\": {\"O\": 1.0}, \"27\": {\"O\": 1.0}, \"28\": {\"O\": 1.0}, \"29\": {\"O\": 1.0}, \"30\": {\"O\": 1.0}, \"31\": {\"O\": 1.0}, \"32\": {\"O\": 1.0}, \"33\": {\"O\": 1.0}, \"34\": {\"O\": 1.0}, \"35\": {\"O\": 1.0}, \"36\": {\"O\": 1.0}, \"37\": {\"O\": 1.0}, \"38\": {\"O\": 1.0}, \"39\": {\"O\": 1.0}}" neb_image=1 energy=-39205.781689515476 polarization_c_per_m2="_JSON [0.019738987248572443, -0.005066692965632459, -0.00012770100948510804]" pbc="T T T"
Pb       1.19098650       1.41558174      -0.00174359        0       2.00000000       2.00000000       0.00489373      -0.00994851       0.00017969
Pb       4.70556787      10.27986311       0.00163366        0       2.00000000       2.00000000       0.00312864      -0.00901898      -0.00013129
Pb       1.77005899       7.30829183       0.00158613        0       2.00000000       2.00000000       0.00284671      -0.00713294      -0.00012972
Pb       4.11741759       4.40086783      -0.00190592        0       2.00000000       2.00000000       0.00265788      -0.00829682       0.00019684
Pb       1.22356673       1.49363515       4.08512353        4       2.00000000       2.00000000      -0.00118751      -0.00481271       0.00009008
Pb       4.63526923      10.23531045       4.08625633        4       2.00000000       2.00000000      -0.00112338      -0.00522165      -0.00001679
Pb       1.72776362       7.36716021       4.08627597        4       2.00000000       2.00000000       0.00617301      -0.00721704      -0.00001356
Pb       4.18462662       4.34372836       4.08515459        4       2.00000000       2.00000000       0.00638942      -0.00727297       0.00008830
Zr       4.35638511       1.45237358       2.03679160        8       4.00000000       4.00000000       0.00042667      -0.00280971      -0.00085873
Zr       1.51532711      10.29167868       6.12802797        8       4.00000000       4.00000000       0.00084965      -0.00297553      -0.00093256
Zr       1.51555024      10.29205825       2.04383920        8       4.00000000       4.00000000       0.00081819      -0.00301335       0.00091303
Zr       4.35620314       1.45197097       6.13440971        8       4.00000000       4.00000000       0.00044282      -0.00277189       0.00090337
Zr       4.45920569       7.33286461       6.13420940        8       4.00000000       4.00000000       0.00322214      -0.00349418       0.00074749
Zr       1.42827783       4.40735552       2.04286325        8       4.00000000       4.00000000       0.00256858      -0.00329118       0.00078207
Zr       1.42805662       4.40775151       6.12836079        8       4.00000000       4.00000000       0.00258768      -0.00332604      -0.00073531
Zr       4.45943830       7.33245057       2.03768447        8       4.00000000       4.00000000       0.00318968      -0.00345631      -0.00076457
O        4.53506259       1.87258414      -0.00009117       16      -2.00000000      -2.00000000      -0.00523181       0.00449597       0.00000596
O        1.29621470       9.93083549       0.00008680       16      -2.00000000      -2.00000000      -0.00417684       0.00531428      -0.00001297
O        4.25001477       7.74385872       0.00009561       16      -2.00000000      -2.00000000       0.00119992       0.00144670      -0.00001133
O        1.62266461       4.03658932      -0.00008603       16      -2.00000000      -2.00000000       0.00131482       0.00238966       0.00000604
O        4.68486045       1.11418477       4.08584186       20      -2.00000000      -2.00000000      -0.00427174       0.00239487      -0.00000563
O        1.15079418      10.66838157       4.08578142       20      -2.00000000      -2.00000000      -0.00382875       0.00196012      -0.00000140
O        4.10795386       7.00304573       4.08578383       20      -2.00000000      -2.00000000       0.00191458       0.00407390      -0.00000081
O        1.76953407       4.78872843       4.08584731       20      -2.00000000      -2.00000000       0.00155297       0.00266697      -0.00000512
O        3.13048223       3.09256512       2.29942635       24      -2.00000000      -2.00000000       0.00138029       0.00346805      -0.00107661
O        2.74672310       8.69546856       5.86915485       24      -2.00000000      -2.00000000       0.00218988       0.00284801       0.00001998
O        2.74446140       8.69331181       2.30145765       24      -2.00000000      -2.00000000       0.00235040       0.00301279       0.00004112
O        3.13310476       3.09502014       5.87365859       24      -2.00000000      -2.00000000       0.00109533       0.00320700       0.00091232
O        5.66234371       8.98004335       5.88211116       24      -2.00000000      -2.00000000      -0.00299462       0.00439551       0.00333802
O        0.17609104       2.81681704       2.31273174       24      -2.00000000      -2.00000000      -0.00405555       0.00370140       0.00266014
O        0.17868000       2.81437500       5.86012899       24      -2.00000000      -2.00000000      -0.00433898       0.00396146      -0.00280939
O        5.66009166       8.98214556       2.28837052       24      -2.00000000      -2.00000000      -0.00283280       0.00422776      -0.00327423
O        2.92789425       5.90044725       1.65341772       32      -2.00000000      -2.00000000      -0.00158625       0.00501171       0.00089795
O        2.92586383       5.90213510       6.51816074       32      -2.00000000      -2.00000000      -0.00139321       0.00485942      -0.00091943
O       -0.00727527       0.01175849       6.52037551       32      -2.00000000      -2.00000000      -0.00177028       0.00332088      -0.00030190
O       -0.00527175       0.01341365       1.65138803       32      -2.00000000      -2.00000000      -0.00196369       0.00316357       0.00027233
O        2.90472799       0.02288225       1.86907738       36      -2.00000000      -2.00000000      -0.00884816       0.00678584      -0.00045710
O        2.90162833       0.02582022       6.30248147       36      -2.00000000      -2.00000000      -0.00855833       0.00651767       0.00043633
O        0.00456843       5.88222956       6.30148267       36      -2.00000000      -2.00000000       0.00263441       0.00055783      -0.00017188
O        0.00774141       5.88521192       1.87030164       36      -2.00000000      -2.00000000       0.00233447       0.00027845       0.00013928
40
Lattice="5.870405815060581 0.0 0.0 -0.0017460861382031906 11.765204299739697 0.0 0.002131136127339199 0.0003729700528579109 8.172560838190686" Properties=species:S:1:pos:R:3:spacegroup_kinds:I:1:field_charges:R:1:initial_charges:R:1:forces:R:3 spacegroup="P b a m" unit_cell=conventional occupancy="_JSON {\"0\": {\"Pb\": 1.0}, \"1\": {\"Pb\": 1.0}, \"2\": {\"Pb\": 1.0}, \"3\": {\"Pb\": 1.0}, \"4\": {\"Pb\": 1.0}, \"5\": {\"Pb\": 1.0}, \"6\": {\"Pb\": 1.0}, \"7\": {\"Pb\": 1.0}, \"8\": {\"Zr\": 1.0}, \"9\": {\"Zr\": 1.0}, \"10\": {\"Zr\": 1.0}, \"11\": {\"Zr\": 1.0}, \"12\": {\"Zr\": 1.0}, \"13\": {\"Zr\": 1.0}, \"14\": {\"Zr\": 1.0}, \"15\": {\"Zr\": 1.0}, \"16\": {\"O\": 1.0}, \"17\": {\"O\": 1.0}, \"18\": {\"O\": 1.0}, \"19\": {\"O\": 1.0}, \"20\": {\"O\": 1.0}, \"21\": {\"O\": 1.0}, \"22\": {\"O\": 1.0}, \"23\": {\"O\": 1.0}, \"24\": {\"O\": 1.0}, \"25\": {\"O\": 1.0}, \"26\": {\"O\": 1.0}, \"27\": {\"O\": 1.0}, \"28\": {\"O\": 1.0}, \"29\": {\"O\": 1.0}, \"30\": {\"O\": 1.0}, \"31\": {\"O\": 1.0}, \"32\": {\"O\": 1.0}, \"33\": {\"O\": 1.0}, \"34\": {\"O\": 1.0}, \"35\": {\"O\": 1.0}, \"36\": {\"O\": 1.0}, \"37\": {\"O\": 1.0}, \"38\": {\"O\": 1.0}, \"39\": {\"O\": 1.0}}" neb_image=2 energy=-39205.78143761408 polarization_c_per_m2="_JSON [0.022206352923722115, -0.02336617283472483, -0.005163629098778044]" pbc="T T T"
Pb       1.19732361       1.39824090      -0.03032062        0       2.00000000       2.00000000       0.00033167       0.00055063       0.00521137
Pb       4.71049917      10.26281836       0.02356881        0       2.00000000       2.00000000      -0.00152184       0.00323605      -0.00010835
Pb       1.77315592       7.29357480       0.02281319        0       2.00000000       2.00000000       0.00000633       0.00241535      -0.00055863
Pb       4.11997644       4.38240446      -0.03266910        0       2.00000000       2.00000000      -0.00003610       0.00273307       0.00455023
Pb       1.21739260       1.48383480       4.07220284        4       2.00000000       2.00000000       0.00130773       0.00200687       0.00377668
Pb       4.63184153      10.22425950       4.09117866        4       2.00000000       2.00000000       0.00172423       0.00129458       0.00140318
Pb       1.74308714       7.35605176       4.09185753        4       2.00000000       2.00000000      -0.00220581       0.00118469       0.00112397
Pb       4.19625326       4.33225176       4.07312474        4       2.00000000       2.00000000       0.00020552       0.00191541       0.00339140
Zr       4.35705363       1.45108640       2.03191544        8       4.00000000       4.00000000       0.00024865       0.00065055       0.00108888
Zr       1.51449743      10.28462202       6.12825350        8       4.00000000       4.00000000       0.00055292       0.00057706       0.00061076
Zr       1.51864426      10.29058635       2.04745130        8       4.00000000       4.00000000      -0.00021795      -0.00015455      -0.00013250
Zr       4.35421342       1.44495003       6.13249780        8       4.00000000       4.00000000       0.00058971       0.00107524       0.00096563
Zr       4.46479854       7.33067953       6.13848777        8       4.00000000       4.00000000      -0.00009097       0.00026813      -0.00017419
Zr       1.43462481       4.40019225       2.04110079        8       4.00000000       4.00000000       0.00013375       0.00065320       0.00072032
Zr       1.43156291       4.40618368       6.12429468        8       4.00000000       4.00000000      -0.00003321       0.00031021       0.00094428
Zr       4.46862133       7.32430539       2.03824751        8       4.00000000       4.00000000      -0.00047496       0.00059846       0.00030841
O        4.52049205       1.87516979      -0.00159644       16      -2.00000000      -2.00000000       0.00406596       0.00091456       0.00020824
O        1.29529206       9.93935583       0.00149900       16      -2.00000000      -2.00000000      -0.00195048      -0.00200259      -0.00032581
O        4.25676089       7.74420459       0.00177076       16      -2.00000000      -2.00000000       0.00163914      -0.00022409      -0.00032617
O        1.63318848       4.04183677      -0.00127445       16      -2.00000000      -2.00000000      -0.00263874      -0.00164955       0.00006233
O        4.67936203       1.11882544       4.08717478       20      -2.00000000      -2.00000000      -0.00034557      -0.00187438      -0.00027196
O        1.14676633      10.66898636       4.08640769       20      -2.00000000      -2.00000000       0.00223309       0.00083365      -0.00032469
O        4.12163282       7.00915106       4.08660149       20      -2.00000000      -2.00000000      -0.00293289      -0.00127065      -0.00037821
O        1.77404902       4.78874932       4.08730778       20      -2.00000000      -2.00000000       0.00121173       0.00083405      -0.00020832
O        3.11464121       3.07845848       2.31061871       24      -2.00000000      -2.00000000       0.00377149       0.00300544      -0.00257118
O        2.77295885       8.71941498       5.86071714       24      -2.00000000      -2.00000000      -0.00112041      -0.00164806       0.00129424
O        2.74105589       8.68779358       2.30008461       24      -2.00000000      -2.00000000      -0.00080427      -0.00063007      -0.00250571
O        3.16098384       3.12106810       5.88923900       24      -2.00000000      -2.00000000      -0.00372028      -0.00338173      -0.00204942
O        5.67776197       8.97098548       5.88334950       24      -2.00000000      -2.00000000       0.00084229      -0.00088865      -0.00405304
O        0.14889531       2.84425051       2.32427021       24      -2.00000000      -2.00000000       0.00504233      -0.00467230      -0.00001032
O        0.19483778       2.80122607       5.87109652       24      -2.00000000      -2.00000000      -0.00278651       0.00235994      -0.00455778
O        5.64604174       9.00117241       2.27474934       24      -2.00000000      -2.00000000       0.00100554      -0.00165663       0.00254801
O        2.94445369       5.89631977       1.66020697       32      -2.00000000      -2.00000000      -0.00107337       0.00000885      -0.00312550
O        2.91286836       5.92282376       6.51404141       32      -2.00000000      -2.00000000       0.00123573      -0.00198841       0.00112053
O       -0.02579279       0.00435592       6.52273990       32      -2.00000000      -2.00000000       0.00117888      -0.00007153      -0.00099925
O        0.00759618       0.03163765       1.65554463       32      -2.00000000      -2.00000000      -0.00322055      -0.00362055      -0.00162033
O        2.91383882       0.01211347       1.87376834       36      -2.00000000      -2.00000000      -0.00277883       0.00286154      -0.00550348
O        2.86328200       0.05984862       6.30017030       36      -2.00000000      -2.00000000       0.00324235      -0.00258850       0.00264988
O       -0.00699746       5.86452264       6.30637030       36      -2.00000000      -2.00000000       0.00062614       0.00107840      -0.00271358
O        0.04245825       5.91133212       1.87211095       36      -2.00000000      -2.00000000      -0.00324246      -0.00304370       0.00054007
40
Lattice="5.872126624164016 0.0 0.0 0.0062077654937795655 11.762554024671509 0.0 0.0034268752861919462 0.0010057638046423695 8.176581269531813" Properties=species:S:1:pos:R:3:spacegroup_kinds:I:1:field_charges:R:1:initial_charges:R:1:forces:R:3 spacegroup="P b a m" unit_cell=conventional occupancy="_JSON {\"0\": {\"Pb\": 1.0}, \"1\": {\"Pb\": 1.0}, \"2\": {\"Pb\": 1.0}, \"3\": {\"Pb\": 1.0}, \"4\": {\"Pb\": 1.0}, \"5\": {\"Pb\": 1.0}, \"6\": {\"Pb\": 1.0}, \"7\": {\"Pb\": 1.0}, \"8\": {\"Zr\": 1.0}, \"9\": {\"Zr\": 1.0}, \"10\": {\"Zr\": 1.0}, \"11\": {\"Zr\": 1.0}, \"12\": {\"Zr\": 1.0}, \"13\": {\"Zr\": 1.0}, \"14\": {\"Zr\": 1.0}, \"15\": {\"Zr\": 1.0}, \"16\": {\"O\": 1.0}, \"17\": {\"O\": 1.0}, \"18\": {\"O\": 1.0}, \"19\": {\"O\": 1.0}, \"20\": {\"O\": 1.0}, \"21\": {\"O\": 1.0}, \"22\": {\"O\": 1.0}, \"23\": {\"O\": 1.0}, \"24\": {\"O\": 1.0}, \"25\": {\"O\": 1.0}, \"26\": {\"O\": 1.0}, \"27\": {\"O\": 1.0}, \"28\": {\"O\": 1.0}, \"29\": {\"O\": 1.0}, \"30\": {\"O\": 1.0}, \"31\": {\"O\": 1.0}, \"32\": {\"O\": 1.0}, \"33\": {\"O\": 1.0}, \"34\": {\"O\": 1.0}, \"35\": {\"O\": 1.0}, \"36\": {\"O\": 1.0}, \"37\": {\"O\": 1.0}, \"38\": {\"O\": 1.0}, \"39\": {\"O\": 1.0}}" neb_image=3 energy=-39205.774847138564 polarization_c_per_m2="_JSON [0.021903430709137466, -0.0368203344149546, -0.017018795460474617]" pbc="T T T"
Pb       1.20146972       1.39137743      -0.06529757        0       2.00000000       2.00000000      -0.00368572       0.00501465       0.01534753
Pb       4.72203564      10.24663602       0.03787725        0       2.00000000       2.00000000      -0.00402636       0.01274516       0.00638076
Pb       1.78086426       7.28113159       0.03826664        0       2.00000000       2.00000000      -0.00131343       0.01036494       0.00167468
Pb       4.12602290       4.36580810      -0.06549459        0       2.00000000       2.00000000      -0.00122584       0.01341793       0.01173630
Pb       1.21205757       1.47322845       4.05317740        4       2.00000000       2.00000000       0.00490628       0.01054572       0.01484433
Pb       4.63391017      10.21401367       4.09212706        4       2.00000000       2.00000000       0.00657874       0.00727512       0.00650108
Pb       1.76020667       7.34681921       4.09418004        4       2.00000000       2.00000000      -0.00951525       0.00665988       0.00531901
Pb       4.20262863       4.32169631       4.05739561        4       2.00000000       2.00000000      -0.00037622       0.00903331       0.00979805
Zr       4.35910155       1.44952164       2.02653766        8       4.00000000       4.00000000       0.00096980       0.00297270       0.00380908
Zr       1.51855275      10.27724794       6.12966193        8       4.00000000       4.00000000       0.00147220       0.00262218       0.00300641
Zr       1.52754695      10.28904385       2.05010509        8       4.00000000       4.00000000       0.00007019       0.00107152       0.00026905
Zr       4.35317171       1.43839866       6.13044606        8       4.00000000       4.00000000       0.00146676       0.00337343       0.00283010
Zr       4.47319737       7.32818776       6.14366578        8       4.00000000       4.00000000      -0.00175283       0.00281010      -0.00017737
Zr       1.44036463       4.39462377       2.03845783        8       4.00000000       4.00000000       0.00048040       0.00213620       0.00158105
Zr       1.43590041       4.40503753       6.12211504        8       4.00000000       4.00000000      -0.00040842       0.00235544       0.00286375
Zr       4.48036217       7.31729705       2.03938966        8       4.00000000       4.00000000      -0.00231655       0.00228261       0.00151221
O        4.50240397       1.87154975      -0.00325234       16      -2.00000000      -2.00000000       0.01815933       0.00326542       0.00032216
O        1.30460904       9.94696210       0.00331085       16      -2.00000000      -2.00000000      -0.00362179      -0.00920736      -0.00091883
O        4.26418552       7.74226909       0.00382444       16      -2.00000000      -2.00000000       0.00314795      -0.00010445      -0.00085961
O        1.64644308       4.04910020      -0.00205707       16      -2.00000000      -2.00000000      -0.00963969      -0.00815506      -0.00031668
O        4.67817776       1.12816052       4.09053382       20      -2.00000000      -2.00000000       0.00167566      -0.00922537      -0.00104558
O        1.14844311      10.66523699       4.08944735       20      -2.00000000      -2.00000000       0.00642879       0.00224907      -0.00121678
O        4.14038092       7.01615073       4.08990759       20      -2.00000000      -2.00000000      -0.01115893      -0.00780532      -0.00128276
O        1.77507590       4.78506698       4.09069280       20      -2.00000000      -2.00000000       0.00420657       0.00333233      -0.00078473
O        3.09342892       3.05786957       2.32683122       24      -2.00000000      -2.00000000       0.00922240       0.00610850      -0.00602179
O        2.79766702       8.73645848       5.85835142       24      -2.00000000      -2.00000000      -0.00424843      -0.00588930       0.00168024
O        2.74463860       8.68189277       2.30334511       24      -2.00000000      -2.00000000      -0.00655372      -0.00620008      -0.00801306
O        3.18879165       3.14392268       5.90690218       24      -2.00000000      -2.00000000      -0.00874180      -0.00867927      -0.00647330
O        5.69447591       8.96298571       5.89313216       24      -2.00000000      -2.00000000       0.00391508      -0.00480743      -0.01495922
O        0.11939713       2.87390089       2.33073846       24      -2.00000000      -2.00000000       0.01514147      -0.01404055       0.00215543
O        0.21567977       2.78371686       5.89599815       24      -2.00000000      -2.00000000      -0.00400073       0.00380381      -0.01596949
O        5.64214477       9.01456913       2.26416747       24      -2.00000000      -2.00000000       0.00078452      -0.00394670       0.00634206
O        2.96325828       5.88977585       1.67388212       32      -2.00000000      -2.00000000       0.00024071      -0.00458021      -0.01327800
O        2.90610679       5.93796816       6.51115184       32      -2.00000000      -2.00000000       0.00250907      -0.00664520       0.00556436
O       -0.04217136      -0.00290618       6.52845954       32      -2.00000000      -2.00000000       0.00358253      -0.00167260      -0.00236308
O        0.02644301       0.05312405       1.66636932       32      -2.00000000      -2.00000000      -0.00953083      -0.01310187      -0.00936849
O        2.93325980      -0.00678566       1.89219759       36      -2.00000000      -2.00000000      -0.00366570       0.00463180      -0.01905561
O        2.83284626       0.08688794       6.29580245       36      -2.00000000      -2.00000000       0.01066741      -0.00786613       0.00565632
O       -0.01443965       5.84844603       6.31680407       36      -2.00000000      -2.00000000      -0.00207574       0.00071763      -0.00739032
O        0.07620973       5.93567274       1.87614866       36      -2.00000000      -2.00000000      -0.00776787      -0.00686254       0.00030070
40