40
Lattice="5.871972 0.0 0.0 0.0 11.774171 0.0 0.0 0.0 8.178836" Properties=species:S:1:pos:R:3:spacegroup_kinds:I:1:field_charges:R:1:initial_charges:R:1:forces:R:3 spacegroup="P b a m" unit_cell=conventional occupancy="_JSON {\"0\": {\"Pb\": 1.0}, \"1\": {\"Pb\": 1.0}, \"2\": {\"Pb\": 1.0}, \"3\": {\"Pb\": 1.0}, \"4\": {\"Pb\": 1.0}, \"5\": {\"Pb\": 1.0}, \"6\": {\"Pb\": 1.0}, \"7\": {\"Pb\": 1.0}, \"8\": {\"Zr\": 1.0}, \"9\": {\"Zr\": 1.0}, \"10\": {\"Zr\": 1.0}, \"11\": {\"Zr\": 1.0}, \"12\": {\"Zr\": 1.0}, \"13\": {\"Zr\": 1.0}, \"14\": {\"Zr\": 1.0}, \"15\": {\"Zr\": 1.0}, \"16\": {\"O\": 1.0}, \"17\": {\"O\": 1.0}, \"18\": {\"O\": 1.0}, \"19\": {\"O\": 1.0}, \"20\": {\"O\": 1.0}, \"21\": {\"O\": 1.0}, \"22\": {\"O\": 1.0}, \"23\": {\"O\": 1.0}, \"24\": {\"O\": 1.0}, \"25\": {\"O\": 1.0}, \"26\": {\"O\": 1.0}, \"27\": {\"O\": 1.0}, \"28\": {\"O\": 1.0}, \"29\": {\"O\": 1.0}, \"30\": {\"O\": 1.0}, \"31\": {\"O\": 1.0}, \"32\": {\"O\": 1.0}, \"33\": {\"O\": 1.0}, \"34\": {\"O\": 1.0}, \"35\": {\"O\": 1.0}, \"36\": {\"O\": 1.0}, \"37\": {\"O\": 1.0}, \"38\": {\"O\": 1.0}, \"39\": {\"O\": 1.0}}" neb_image=0 energy=-39205.764739708866 polarization_c_per_m2="_JSON [-0.0012611573750599988, 0.0349032942069816, -1.3526432333244794e-15]" pbc="T T T"
Pb       1.17373646       1.45287285      -0.00000000        0       2.00000000       2.00000000       0.01811033      -0.02203254      -0.00000000
Pb       4.69823554      10.32129815      -0.00000000        0       2.00000000       2.00000000       0.02886545      -0.02506414      -0.00000000
Pb       1.76224954       7.33995835      -0.00000000        0       2.00000000       2.00000000       0.02886545      -0.02203254      -0.00000000
Pb       4.10972246       4.43421265      -0.00000000        0       2.00000000       2.00000000       0.01811033      -0.02506414      -0.00000000
Pb       1.22777814       1.51267559       4.08941800        4       2.00000000       2.00000000       0.01833476      -0.01928032       0.00000000
Pb       4.64419386      10.26149541       4.08941800        4       2.00000000       2.00000000       0.02864101      -0.02781637       0.00000000
Pb       1.70820786       7.39976109       4.08941800        4       2.00000000       2.00000000       0.02864101      -0.01928032       0.00000000
Pb       4.16376414       4.37440991       4.08941800        4       2.00000000       2.00000000       0.01833476      -0.02781637       0.00000000
Zr       4.35630128       1.46381254       2.04209901        8       4.00000000       4.00000000       0.04074979      -0.05115421       0.00128299
Zr       1.51567072      10.31035846       6.13673699        8       4.00000000       4.00000000       0.05320176      -0.04303916      -0.00128299
Zr       1.51567072      10.31035846       2.04209901        8       4.00000000       4.00000000       0.05320176      -0.04303916       0.00128299
Zr       4.35630128       1.46381254       6.13673699        8       4.00000000       4.00000000       0.04074979      -0.05115421      -0.00128299
Zr       4.45165672       7.35089804       6.13673699        8       4.00000000       4.00000000       0.05320176      -0.05115421      -0.00128299
Zr       1.42031528       4.42327296       2.04209901        8       4.00000000       4.00000000       0.04074979      -0.04303916       0.00128299
Zr       1.42031528       4.42327296       6.13673699        8       4.00000000       4.00000000       0.04074979      -0.04303916      -0.00128299
Zr       4.45165672       7.35089804       2.04209901        8       4.00000000       4.00000000       0.05320176      -0.05115421       0.00128299
O        4.55672239       1.85661981      -0.00000000       16      -2.00000000      -2.00000000      -0.01967453       0.01834648       0.00000000
O        1.31524961       9.91755119      -0.00000000       16      -2.00000000      -2.00000000      -0.02730124       0.02875020       0.00000000
O        4.25123561       7.74370531      -0.00000000       16      -2.00000000      -2.00000000      -0.02730124       0.01834648       0.00000000
O        1.62073639       4.03046569      -0.00000000       16      -2.00000000      -2.00000000      -0.01967453       0.02875020       0.00000000
O        4.70256932       1.10550087       4.08941800       20      -2.00000000      -2.00000000      -0.01760133       0.03098644      -0.00000000
O        1.16940268      10.66867013       4.08941800       20      -2.00000000      -2.00000000      -0.02937445       0.01611025      -0.00000000
O        4.10538868       6.99258637       4.08941800       20      -2.00000000      -2.00000000      -0.02937445       0.03098644      -0.00000000
O        1.76658332       4.78158463       4.08941800       20      -2.00000000      -2.00000000      -0.01760133       0.01611025      -0.00000000
O        3.12999853       3.08379167       2.30409508       24      -2.00000000      -2.00000000      -0.03345472       0.03894801      -0.00556508
O        2.74197347       8.69037933       5.87474092       24      -2.00000000      -2.00000000      -0.01352106       0.00814867       0.00556508
O        2.74197347       8.69037933       2.30409508       24      -2.00000000      -2.00000000      -0.01352106       0.00814867      -0.00556508
O        3.12999853       3.08379167       5.87474092       24      -2.00000000      -2.00000000      -0.03345472       0.03894801       0.00556508
O        5.67795947       8.97087717       5.87474092       24      -2.00000000      -2.00000000      -0.01352106       0.03894801       0.00556508
O        0.19401253       2.80329383       2.30409508       24      -2.00000000      -2.00000000      -0.03345472       0.00814867      -0.00556508
O        0.19401253       2.80329383       5.87474092       24      -2.00000000      -2.00000000      -0.03345472       0.00814867       0.00556508
O        5.67795947       8.97087717       2.30409508       24      -2.00000000      -2.00000000      -0.01352106       0.03894801      -0.00556508
O        2.93598600       5.88708550       1.65175084       32      -2.00000000      -2.00000000      -0.02348789       0.02354834       0.00096873
O        2.93598600       5.88708550       6.52708516       32      -2.00000000      -2.00000000      -0.02348789       0.02354834      -0.00096873
O        0.00000000       0.00000000       6.52708516       32      -2.00000000      -2.00000000      -0.02348789       0.02354834      -0.00096873
O       -0.00000000       0.00000000       1.65175084       32      -2.00000000      -2.00000000      -0.02348789       0.02354834       0.00096873
O        2.93598600       0.00000000       1.87160782       36      -2.00000000      -2.00000000      -0.02348789       0.02354834       0.00119428
O        2.93598600       0.00000000       6.30722818       36      -2.00000000      -2.00000000      -0.02348789       0.02354834      -0.00119428
O        0.00000000       5.88708550       6.30722818       36      -2.00000000      -2.00000000      -0.02348789       0.02354834      -0.00119428
O        0.00000000       5.88708550       1.87160782       36      -2.00000000      -2.00000000      -0.02348789       0.02354834       0.00119428
40
Lattice="5.869464560224661 0.0 0.0 -0.004229018316975206 11.765836211094305 0.0 0.0001207415818610561 4.312122720759974e-06 8.171576827722491" Properties=species:S:1:pos:R:3:spacegroup_kinds:I:1:field_charges:R:1:initial_charges:R:1:forces:R:3 spacegroup="P b a m" unit_cell=conventional occupancy="_JSON {\"0\": {\"Pb\": 1.0}, \"1\": {\"Pb\": 1.0}, \"2\": {\"Pb\": 1.0}, \"3\": {\"Pb\": 1.0}, \"4\": {\"Pb\": 1.0}, \"5\": {\"Pb\": 1.0}, \"6\": {\"Pb\": 1.0}, \"7\": {\"Pb\": 1.0}, \"8\": {\"Zr\": 1.0}, \"9\": {\"Zr\": 1.0}, \"10\": {\"Zr\": 1.0}, \"11\": {\"Zr\": 1.0}, \"12\": {\"Zr\": 1.0}, \"13\": {\"Zr\": 1.0}, \"14\": {\"Zr\": 1.0}, \"15\": {\"Zr\": 1.0}, \"16\": {\"O\": 1.0}, \"17\": {\"O\": 1.0}, \"18\": {\"O\": 1.0}, \"19\": {\"O\": 1.0}, \"20\": {\"O\": 1.0}, \"21\": {\"O\": 1.0}, \"22\": {\"O\": 1.0}, \"23\": {\"O\": 1.0}, \"24\": {\"O\": 1.0}, \"25\": {\"O\": 1.0}, \"26\": {\"O\": 1.0}, \"27\": {\"O\": 1.0}, \"28\": {\"O\": 1.0}, \"29\": {\"O\": 1.0}, \"30\": {\"O\": 1.0}, \"31\": {\"O\": 1.0}, \"32\": {\"O\": 1.0}, \"33\": {\"O\": 1.0}, \"34\": {\"O\": 1.0}, \"35\": {\"O\": 1.0}, \"36\": {\"O\": 1.0}, \"37\": {\"O\": 1.0}, \"38\": {\"O\": 1.0}, \"39\": {\"O\": 1.0}}" neb_image=1 energy=-39205.78179220693 polarization_c_per_m2="_JSON [0.019889106057640122, -0.005673676911778238, -6.970877196116146e-05]" pbc="T T T"
Pb       1.19122702       1.41487975      -0.00121658        0       2.00000000       2.00000000       0.00469069      -0.00952291       0.00011796
Pb       4.70526742      10.27945641       0.00116959        0       2.00000000       2.00000000       0.00305098      -0.00871106      -0.00010370
Pb       1.76994673       7.30787342       0.00113469        0       2.00000000       2.00000000       0.00273426      -0.00687623      -0.00010174
Pb       4.11728301       4.40027507      -0.00133064        0       2.00000000       2.00000000       0.00260686      -0.00796310       0.00012896
Pb       1.22325562       1.49336178       4.08533006        4       2.00000000       2.00000000      -0.00108955      -0.00464417       0.00004877
Pb       4.63478226      10.23495126       4.08612724        4       2.00000000       2.00000000      -0.00109007      -0.00498994      -0.00002466
Pb       1.72792130       7.36682031       4.08614357        4       2.00000000       2.00000000       0.00591031      -0.00697759      -0.00002403
Pb       4.18484129       4.34340226       4.08535180        4       2.00000000       2.00000000       0.00617541      -0.00702351       0.00004742
Zr       4.35621411       1.45220296       2.03679968        8       4.00000000       4.00000000       0.00042229      -0.00269429      -0.00083663
Zr       1.51497842      10.29159463       6.12792265        8       4.00000000       4.00000000       0.00081570      -0.00284849      -0.00089413
Zr       1.51513151      10.29186269       2.04385011        8       4.00000000       4.00000000       0.00079480      -0.00287474       0.00087721
Zr       4.35608517       1.45191705       6.13450642        8       4.00000000       4.00000000       0.00043818      -0.00266718       0.00086299
Zr       4.45919086       7.33263677       6.13420750        8       4.00000000       4.00000000       0.00307194      -0.00334819       0.00071725
Zr       1.42821068       4.40727781       2.04296757        8       4.00000000       4.00000000       0.00247618      -0.00317377       0.00073616
Zr       1.42805308       4.40755771       6.12835550        8       4.00000000       4.00000000       0.00249453      -0.00319969      -0.00070952
Zr       4.45935116       7.33234493       2.03758546        8       4.00000000       4.00000000       0.00304996      -0.00332096      -0.00073389
O        4.53464733       1.87274905      -0.00006450       16      -2.00000000      -2.00000000      -0.00504264       0.00433325       0.00000505
O        1.29564220       9.93106452       0.00005947       16      -2.00000000      -2.00000000      -0.00397422       0.00513792      -0.00000683
O        4.25011022       7.74390586       0.00006656       16      -2.00000000      -2.00000000       0.00110906       0.00138942      -0.00000655
O        1.62279618       4.03670978      -0.00006101       16      -2.00000000      -2.00000000       0.00126377       0.00229521       0.00000509
O        4.68447536       1.11423134       4.08581750       20      -2.00000000      -2.00000000      -0.00408342       0.00234610      -0.00000334
O        1.15034267      10.66851074       4.08577353       20      -2.00000000      -2.00000000      -0.00369471       0.00187668       0.00000072
O        4.10798175       7.00323955       4.08577552       20      -2.00000000      -2.00000000       0.00187627       0.00391224       0.00000107
O        1.76957229       4.78877681       4.08582167       20      -2.00000000      -2.00000000       0.00146828       0.00256986      -0.00000330
O        3.13094322       3.09317575       2.29907333       24      -2.00000000      -2.00000000       0.00127516       0.00328868      -0.00099370
O        2.74642782       8.69549225       5.86925602       24      -2.00000000      -2.00000000       0.00210207       0.00275560       0.00000820
O        2.74479895       8.69394614       2.30160480       24      -2.00000000      -2.00000000       0.00223713       0.00288937       0.00005245
O        3.13276450       3.09488408       5.87353427       24      -2.00000000      -2.00000000       0.00109922       0.00312192       0.00089161
O        5.66170331       8.98049619       5.88229620       24      -2.00000000      -2.00000000      -0.00287469       0.00420867       0.00325740
O        0.17617038       2.81666289       2.31270262       24      -2.00000000      -2.00000000      -0.00392982       0.00359467       0.00254454
O        0.17796705       2.81496305       5.85974529       24      -2.00000000      -2.00000000      -0.00410424       0.00376059      -0.00263506
O        5.66008201       8.98200270       2.28846868       24      -2.00000000      -2.00000000      -0.00273962       0.00407538      -0.00319212
O        2.92740770       5.90097174       1.65349963       32      -2.00000000      -2.00000000      -0.00152071       0.00479882       0.00087559
O        2.92597248       5.90216605       6.51804648       32      -2.00000000      -2.00000000      -0.00138173       0.00468965      -0.00087951
O       -0.00721853       0.01210055       6.52030818       32      -2.00000000      -2.00000000      -0.00171889       0.00318651      -0.00027587
O       -0.00580811       0.01326834       1.65137135       32      -2.00000000      -2.00000000      -0.00185574       0.00307745       0.00026373
O        2.90360939       0.02378215       1.86889469       36      -2.00000000      -2.00000000      -0.00846569       0.00650225      -0.00037382
O        2.90142229       0.02585633       6.30263840       36      -2.00000000      -2.00000000      -0.00825771       0.00631125       0.00036996
O        0.00519041       5.88282149       6.30137646       36      -2.00000000      -2.00000000       0.00243762       0.00045573      -0.00011765
O        0.00743115       5.88492863       1.87031946       36      -2.00000000      -2.00000000       0.00222280       0.00025859       0.00010394
40
Lattice="5.870205759711061 0.0 0.0 -0.004310463674829294 11.765258197915205 0.0 0.0024585052846849576 0.00024019908875508428 8.172453461946493" Properties=species:S:1:pos:R:3:spacegroup_kinds:I:1:field_charges:R:1:initial_charges:R:1:forces:R:3 spacegroup="P b a m" unit_cell=conventional occupancy="_JSON {\"0\": {\"Pb\": 1.0}, \"1\": {\"Pb\": 1.0}, \"2\": {\"Pb\": 1.0}, \"3\": {\"Pb\": 1.0}, \"4\": {\"Pb\": 1.0}, \"5\": {\"Pb\": 1.0}, \"6\": {\"Pb\": 1.0}, \"7\": {\"Pb\": 1.0}, \"8\": {\"Zr\": 1.0}, \"9\": {\"Zr\": 1.0}, \"10\": {\"Zr\": 1.0}, \"11\": {\"Zr\": 1.0}, \"12\": {\"Zr\": 1.0}, \"13\": {\"Zr\": 1.0}, \"14\": {\"Zr\": 1.0}, \"15\": {\"Zr\": 1.0}, \"16\": {\"O\": 1.0}, \"17\": {\"O\": 1.0}, \"18\": {\"O\": 1.0}, \"19\": {\"O\": 1.0}, \"20\": {\"O\": 1.0}, \"21\": {\"O\": 1.0}, \"22\": {\"O\": 1.0}, \"23\": {\"O\": 1.0}, \"24\": {\"O\": 1.0}, \"25\": {\"O\": 1.0}, \"26\": {\"O\": 1.0}, \"27\": {\"O\": 1.0}, \"28\": {\"O\": 1.0}, \"29\": {\"O\": 1.0}, \"30\": {\"O\": 1.0}, \"31\": {\"O\": 1.0}, \"32\": {\"O\": 1.0}, \"33\": {\"O\": 1.0}, \"34\": {\"O\": 1.0}, \"35\": {\"O\": 1.0}, \"36\": {\"O\": 1.0}, \"37\": {\"O\": 1.0}, \"38\": {\"O\": 1.0}, \"39\": {\"O\": 1.0}}" neb_image=2 energy=-39205.781665642375 polarization_c_per_m2="_JSON [0.022717117993770092, -0.02293984154132125, -0.0042910056875643116]" pbc="T T T"
Pb       1.19746787       1.39807437      -0.03013802        0       2.00000000       2.00000000       0.00009130       0.00066538       0.00476834
Pb       4.70733772      10.26384726       0.02494132        0       2.00000000       2.00000000      -0.00098820       0.00262069      -0.00088694
Pb       1.77176349       7.29433835       0.02402031        0       2.00000000       2.00000000      -0.00006148       0.00195335      -0.00107576
Pb       4.11904391       4.38287538      -0.03273994        0       2.00000000       2.00000000      -0.00014326       0.00226797       0.00426897
Pb       1.21745870       1.48417686       4.07271033        4       2.00000000       2.00000000       0.00121062       0.00167057       0.00322962
Pb       4.63016356      10.22440730       4.09204156        4       2.00000000       2.00000000       0.00131273       0.00111651       0.00084439
Pb       1.74102630       7.35608829       4.09266132        4       2.00000000       2.00000000      -0.00175448       0.00106498       0.00064176
Pb       4.19560111       4.33262166       4.07369272        4       2.00000000       2.00000000      -0.00004821       0.00164103       0.00279959
Zr       4.35680137       1.45140638       2.03202185        8       4.00000000       4.00000000       0.00017381       0.00043850       0.00095554
Zr       1.51240523      10.28445320       6.12846989        8       4.00000000       4.00000000       0.00056064       0.00063574       0.00042614
Zr       1.51637848      10.29057880       2.04748850        8       4.00000000       4.00000000      -0.00020512      -0.00011078      -0.00015265
Zr       4.35400200       1.44497731       6.13258927        8       4.00000000       4.00000000       0.00057959       0.00098793       0.00078750
Zr       4.46331357       7.33069405       6.13850174        8       4.00000000       4.00000000      -0.00010627       0.00021212      -0.00018764
Zr       1.43398553       4.40018787       2.04119750        8       4.00000000       4.00000000      -0.00006696       0.00061239       0.00057482
Zr       1.43076061       4.40628599       6.12437871        8       4.00000000       4.00000000      -0.00004711       0.00021798       0.00081050
Zr       4.46710704       7.32420284       2.03846784        8       4.00000000       4.00000000      -0.00053772       0.00063485       0.00016325
O        4.52076979       1.87547575      -0.00161565       16      -2.00000000      -2.00000000       0.00317107       0.00064570       0.00019882
O        1.29194108       9.93894065       0.00145521       16      -2.00000000      -2.00000000      -0.00109160      -0.00160593      -0.00027629
O        4.25619011       7.74404646       0.00174834       16      -2.00000000      -2.00000000       0.00075587      -0.00016111      -0.00028674
O        1.63136271       4.04146867      -0.00131209       16      -2.00000000      -2.00000000      -0.00188955      -0.00131164       0.00006723
O        4.67851287       1.11836442       4.08705880       20      -2.00000000      -2.00000000       0.00009952      -0.00147903      -0.00022228
O        1.14555120      10.66937548       4.08622817       20      -2.00000000      -2.00000000       0.00157019       0.00060675      -0.00022611
O        4.11926261       7.00904703       4.08640665       20      -2.00000000      -2.00000000      -0.00218082      -0.00109501      -0.00027271
O        1.77360135       4.78899107       4.08723630       20      -2.00000000      -2.00000000       0.00075070       0.00051731      -0.00020112
O        3.11411603       3.07848778       2.31029309       24      -2.00000000      -2.00000000       0.00341061       0.00273964      -0.00223311
O        2.77211649       8.72006380       5.86108348       24      -2.00000000      -2.00000000      -0.00139257      -0.00175823       0.00091675
O        2.73815235       8.68685935       2.29839615       24      -2.00000000      -2.00000000      -0.00026169      -0.00010767      -0.00148784
O        3.16015155       3.12086287       5.88916614       24      -2.00000000      -2.00000000      -0.00331132      -0.00307514      -0.00195129
O        5.67731463       8.96958442       5.88106592       24      -2.00000000      -2.00000000       0.00016900      -0.00024688      -0.00256516
O        0.14876958       2.84391578       2.32471993       24      -2.00000000      -2.00000000       0.00455785      -0.00429143      -0.00047056
O        0.19432706       2.80103773       5.87003968       24      -2.00000000      -2.00000000      -0.00243781       0.00214983      -0.00353108
O        5.64346972       9.00153028       2.27536603       24      -2.00000000      -2.00000000       0.00123313      -0.00176604       0.00204454
O        2.94380925       5.89569419       1.65923367       32      -2.00000000      -2.00000000      -0.00137854       0.00031740      -0.00228023
O        2.91134648       5.92289056       6.51413702       32      -2.00000000      -2.00000000       0.00124595      -0.00186369       0.00079708
O       -0.02644703       0.00338459       6.52219861       32      -2.00000000      -2.00000000       0.00152860       0.00032007      -0.00062845
O        0.00725120       0.03117842       1.65535500       32      -2.00000000      -2.00000000      -0.00284463      -0.00321414      -0.00152906
O        2.91374903       0.01214003       1.87160998       36      -2.00000000      -2.00000000      -0.00257582       0.00265210      -0.00384147
O        2.86253016       0.06055980       6.30122391       36      -2.00000000      -2.00000000       0.00348043      -0.00276608       0.00182176
O       -0.00890772       5.86362004       6.30507827       36      -2.00000000      -2.00000000       0.00085822       0.00126622      -0.00186869
O        0.04189444       5.91175550       1.87277775       36      -2.00000000      -2.00000000      -0.00343665      -0.00310221       0.00005856
40
Lattice="5.87186966104254 0.0 0.0 0.0025988917839987803 11.762320234517835 0.0 0.004229076243643326 0.0006798262346532468 8.176502779343126" Properties=species:S:1:pos:R:3:spacegroup_kinds:I:1:field_charges:R:1:initial_charges:R:1:forces:R:3 spacegroup="P b a m" unit_cell=conventional occupancy="_JSON {\"0\": {\"Pb\": 1.0}, \"1\": {\"Pb\": 1.0}, \"2\": {\"Pb\": 1.0}, \"3\": {\"Pb\": 1.0}, \"4\": {\"Pb\": 1.0}, \"5\": {\"Pb\": 1.0}, \"6\": {\"Pb\": 1.0}, \"7\": {\"Pb\": 1.0}, \"8\": {\"Zr\": 1.0}, \"9\": {\"Zr\": 1.0}, \"10\": {\"Zr\": 1.0}, \"11\": {\"Zr\": 1.0}, \"12\": {\"Zr\": 1.0}, \"13\": {\"Zr\": 1.0}, \"14\": {\"Zr\": 1.0}, \"15\": {\"Zr\": 1.0}, \"16\": {\"O\": 1.0}, \"17\": {\"O\": 1.0}, \"18\": {\"O\": 1.0}, \"19\": {\"O\": 1.0}, \"20\": {\"O\": 1.0}, \"21\": {\"O\": 1.0}, \"22\": {\"O\": 1.0}, \"23\": {\"O\": 1.0}, \"24\": {\"O\": 1.0}, \"25\": {\"O\": 1.0}, \"26\": {\"O\": 1.0}, \"27\": {\"O\": 1.0}, \"28\": {\"O\": 1.0}, \"29\": {\"O\": 1.0}, \"30\": {\"O\": 1.0}, \"31\": {\"O\": 1.0}, \"32\": {\"O\": 1.0}, \"33\": {\"O\": 1.0}, \"34\": {\"O\": 1.0}, \"35\": {\"O\": 1.0}, \"36\": {\"O\": 1.0}, \"37\": {\"O\": 1.0}, \"38\": {\"O\": 1.0}, \"39\": {\"O\": 1.0}}" neb_image=3 energy=-39205.77556081368 polarization_c_per_m2="_JSON [0.022294055963702958, -0.03496000561730497, -0.016051902955028122]" pbc="T T T"
Pb       1.20047373       1.39275650      -0.06623662        0       2.00000000       2.00000000      -0.00303966       0.00395347       0.01527521
Pb       4.71753692      10.24795142       0.04058575        0       2.00000000       2.00000000      -0.00327716       0.01170652       0.00521240
Pb       1.77902705       7.28335981       0.04061303        0       2.00000000       2.00000000      -0.00146723       0.00927321       0.00100094
Pb       4.12486524       4.36821977      -0.06657279        0       2.00000000       2.00000000      -0.00116721       0.01206454       0.01146637
Pb       1.21232515       1.47428173       4.05307408        4       2.00000000       2.00000000       0.00489106       0.00981850       0.01488071
Pb       4.63223786      10.21524576       4.09366758        4       2.00000000       2.00000000       0.00550088       0.00645638       0.00570245
Pb       1.75620934       7.34722905       4.09547635        4       2.00000000       2.00000000      -0.00839685       0.00585418       0.00463137
Pb       4.20134883       4.32210791       4.05781658        4       2.00000000       2.00000000      -0.00055310       0.00859511       0.00905780
Zr       4.35895415       1.45008674       2.02652010        8       4.00000000       4.00000000       0.00093708       0.00260023       0.00374575
Zr       1.51581456      10.27678642       6.13025758        8       4.00000000       4.00000000       0.00150852       0.00250806       0.00262671
Zr       1.52460723      10.28908542       2.05009610        8       4.00000000       4.00000000      -0.00001813       0.00096439       0.00033083
Zr       4.35312209       1.43824296       6.13045325        8       4.00000000       4.00000000       0.00155228       0.00327318       0.00267847
Zr       4.47101680       7.32831275       6.14355024        8       4.00000000       4.00000000      -0.00165043       0.00264041      -0.00008976
Zr       1.43962545       4.39478380       2.03836284        8       4.00000000       4.00000000       0.00018563       0.00185643       0.00148370
Zr       1.43499147       4.40531449       6.12221431        8       4.00000000       4.00000000      -0.00043645       0.00214132       0.00274446
Zr       4.47818526       7.31715942       2.03998708        8       4.00000000       4.00000000      -0.00232159       0.00224283       0.00121514
O        4.50434684       1.87152999      -0.00332829       16      -2.00000000      -2.00000000       0.01585824       0.00307912       0.00033535
O        1.29958093       9.94569779       0.00337580       16      -2.00000000      -2.00000000      -0.00198533      -0.00830370      -0.00093032
O        4.26382371       7.74193639       0.00386212       16      -2.00000000      -2.00000000       0.00161419      -0.00019917      -0.00082179
O        1.64293958       4.04785420      -0.00214890       16      -2.00000000      -2.00000000      -0.00821698      -0.00712423      -0.00028762
O        4.67744295       1.12715285       4.09039040       20      -2.00000000      -2.00000000       0.00229061      -0.00896664      -0.00096594
O        1.14731983      10.66455360       4.08926700       20      -2.00000000      -2.00000000       0.00519061       0.00213702      -0.00113830
O        4.13617289       7.01575265       4.08964697       20      -2.00000000      -2.00000000      -0.00945815      -0.00696769      -0.00115640
O        1.77472830       4.78591119       4.09064560       20      -2.00000000      -2.00000000       0.00326350       0.00277345      -0.00078542
O        3.09107132       3.05601674       2.32744050       24      -2.00000000      -2.00000000       0.00897336       0.00598350      -0.00558782
O        2.79561002       8.73581311       5.86014570       24      -2.00000000      -2.00000000      -0.00402389      -0.00544932       0.00070163
O        2.73879051       8.67829166       2.29962193       24      -2.00000000      -2.00000000      -0.00557274      -0.00511471      -0.00647264
O        3.18774214       3.14304112       5.90667315       24      -2.00000000      -2.00000000      -0.00835074      -0.00826799      -0.00661200
O        5.69379542       8.96064345       5.88971246       24      -2.00000000      -2.00000000       0.00321024      -0.00386909      -0.01241254
O        0.11824121       2.87458654       2.33220420       24      -2.00000000      -2.00000000       0.01444158      -0.01364704       0.00145231
O        0.21590597       2.78276077       5.89454029       24      -2.00000000      -2.00000000      -0.00412299       0.00401050      -0.01477745
O        5.63756612       9.01562796       2.26490824       24      -2.00000000      -2.00000000       0.00097689      -0.00386059       0.00513266
O        2.96425562       5.88676385       1.67146285       32      -2.00000000      -2.00000000      -0.00054879      -0.00365440      -0.01124422
O        2.90496533       5.93663628       6.51243904       32      -2.00000000      -2.00000000       0.00226519      -0.00600788       0.00429484
O       -0.04256875      -0.00464524       6.52732342       32      -2.00000000      -2.00000000       0.00425020      -0.00074291      -0.00161815
O        0.02763544       0.05338190       1.66697172       32      -2.00000000      -2.00000000      -0.00929481      -0.01262541      -0.00999379
O        2.93580605      -0.00909674       1.88943496       36      -2.00000000      -2.00000000      -0.00394470       0.00477725      -0.01663543
O        2.83289976       0.08695555       6.29716722       36      -2.00000000      -2.00000000       0.01072948      -0.00780330       0.00428427
O       -0.01716324       5.84690044       6.31474156       36      -2.00000000      -2.00000000      -0.00172329       0.00094300      -0.00614265
O        0.07685007       5.93765109       1.87768081       36      -2.00000000      -2.00000000      -0.00806932      -0.00704852      -0.00058111
40