40
Lattice="5.871972 0.0 0.0 0.0 11.774171 0.0 0.0 0.0 8.178836" Properties=species:S:1:pos:R:3:spacegroup_kinds:I:1:field_charges:R:1:initial_charges:R:1:forces:R:3 spacegroup="P b a m" unit_cell=conventional occupancy="_JSON {\"0\": {\"Pb\": 1.0}, \"1\": {\"Pb\": 1.0}, \"2\": {\"Pb\": 1.0}, \"3\": {\"Pb\": 1.0}, \"4\": {\"Pb\": 1.0}, \"5\": {\"Pb\": 1.0}, \"6\": {\"Pb\": 1.0}, \"7\": {\"Pb\": 1.0}, \"8\": {\"Zr\": 1.0}, \"9\": {\"Zr\": 1.0}, \"10\": {\"Zr\": 1.0}, \"11\": {\"Zr\": 1.0}, \"12\": {\"Zr\": 1.0}, \"13\": {\"Zr\": 1.0}, \"14\": {\"Zr\": 1.0}, \"15\": {\"Zr\": 1.0}, \"16\": {\"O\": 1.0}, \"17\": {\"O\": 1.0}, \"18\": {\"O\": 1.0}, \"19\": {\"O\": 1.0}, \"20\": {\"O\": 1.0}, \"21\": {\"O\": 1.0}, \"22\": {\"O\": 1.0}, \"23\": {\"O\": 1.0}, \"24\": {\"O\": 1.0}, \"25\": {\"O\": 1.0}, \"26\": {\"O\": 1.0}, \"27\": {\"O\": 1.0}, \"28\": {\"O\": 1.0}, \"29\": {\"O\": 1.0}, \"30\": {\"O\": 1.0}, \"31\": {\"O\": 1.0}, \"32\": {\"O\": 1.0}, \"33\": {\"O\": 1.0}, \"34\": {\"O\": 1.0}, \"35\": {\"O\": 1.0}, \"36\": {\"O\": 1.0}, \"37\": {\"O\": 1.0}, \"38\": {\"O\": 1.0}, \"39\": {\"O\": 1.0}}" neb_image=0 energy=-39205.764739708866 polarization_c_per_m2="_JSON [-0.0012611573750599988, 0.0349032942069816, -1.3526432333244794e-15]" pbc="T T T"
Pb       1.17373646       1.45287285      -0.00000000        0       2.00000000       2.00000000       0.01811033      -0.02203254      -0.00000000
Pb       4.69823554      10.32129815      -0.00000000        0       2.00000000       2.00000000       0.02886545      -0.02506414      -0.00000000
Pb       1.76224954       7.33995835      -0.00000000        0       2.00000000       2.00000000       0.02886545      -0.02203254      -0.00000000
Pb       4.10972246       4.43421265      -0.00000000        0       2.00000000       2.00000000       0.01811033      -0.02506414      -0.00000000
Pb       1.22777814       1.51267559       4.08941800        4       2.00000000       2.00000000       0.01833476      -0.01928032       0.00000000
Pb       4.64419386      10.26149541       4.08941800        4       2.00000000       2.00000000       0.02864101      -0.02781637       0.00000000
Pb       1.70820786       7.39976109       4.08941800        4       2.00000000       2.00000000       0.02864101      -0.01928032       0.00000000
Pb       4.16376414       4.37440991       4.08941800        4       2.00000000       2.00000000       0.01833476      -0.02781637       0.00000000
Zr       4.35630128       1.46381254       2.04209901        8       4.00000000       4.00000000       0.04074979      -0.05115421       0.00128299
Zr       1.51567072      10.31035846       6.13673699        8       4.00000000       4.00000000       0.05320176      -0.04303916      -0.00128299
Zr       1.51567072      10.31035846       2.04209901        8       4.00000000       4.00000000       0.05320176      -0.04303916       0.00128299
Zr       4.35630128       1.46381254       6.13673699        8       4.00000000       4.00000000       0.04074979      -0.05115421      -0.00128299
Zr       4.45165672       7.35089804       6.13673699        8       4.00000000       4.00000000       0.05320176      -0.05115421      -0.00128299
Zr       1.42031528       4.42327296       2.04209901        8       4.00000000       4.00000000       0.04074979      -0.04303916       0.00128299
Zr       1.42031528       4.42327296       6.13673699        8       4.00000000       4.00000000       0.04074979      -0.04303916      -0.00128299
Zr       4.45165672       7.35089804       2.04209901        8       4.00000000       4.00000000       0.05320176      -0.05115421       0.00128299
O        4.55672239       1.85661981      -0.00000000       16      -2.00000000      -2.00000000      -0.01967453       0.01834648       0.00000000
O        1.31524961       9.91755119      -0.00000000       16      -2.00000000      -2.00000000      -0.02730124       0.02875020       0.00000000
O        4.25123561       7.74370531      -0.00000000       16      -2.00000000      -2.00000000      -0.02730124       0.01834648       0.00000000
O        1.62073639       4.03046569      -0.00000000       16      -2.00000000      -2.00000000      -0.01967453       0.02875020       0.00000000
O        4.70256932       1.10550087       4.08941800       20      -2.00000000      -2.00000000      -0.01760133       0.03098644      -0.00000000
O        1.16940268      10.66867013       4.08941800       20      -2.00000000      -2.00000000      -0.02937445       0.01611025      -0.00000000
O        4.10538868       6.99258637       4.08941800       20      -2.00000000      -2.00000000      -0.02937445       0.03098644      -0.00000000
O        1.76658332       4.78158463       4.08941800       20      -2.00000000      -2.00000000      -0.01760133       0.01611025      -0.00000000
O        3.12999853       3.08379167       2.30409508       24      -2.00000000      -2.00000000      -0.03345472       0.03894801      -0.00556508
O        2.74197347       8.69037933       5.87474092       24      -2.00000000      -2.00000000      -0.01352106       0.00814867       0.00556508
O        2.74197347       8.69037933       2.30409508       24      -2.00000000      -2.00000000      -0.01352106       0.00814867      -0.00556508
O        3.12999853       3.08379167       5.87474092       24      -2.00000000      -2.00000000      -0.03345472       0.03894801       0.00556508
O        5.67795947       8.97087717       5.87474092       24      -2.00000000      -2.00000000      -0.01352106       0.03894801       0.00556508
O        0.19401253       2.80329383       2.30409508       24      -2.00000000      -2.00000000      -0.03345472       0.00814867      -0.00556508
O        0.19401253       2.80329383       5.87474092       24      -2.00000000      -2.00000000      -0.03345472       0.00814867       0.00556508
O        5.67795947       8.97087717       2.30409508       24      -2.00000000      -2.00000000      -0.01352106       0.03894801      -0.00556508
O        2.93598600       5.88708550       1.65175084       32      -2.00000000      -2.00000000      -0.02348789       0.02354834       0.00096873
O        2.93598600       5.88708550       6.52708516       32      -2.00000000      -2.00000000      -0.02348789       0.02354834      -0.00096873
O        0.00000000       0.00000000       6.52708516       32      -2.00000000      -2.00000000      -0.02348789       0.02354834      -0.00096873
O       -0.00000000       0.00000000       1.65175084       32      -2.00000000      -2.00000000      -0.02348789       0.02354834       0.00096873
O        2.93598600       0.00000000       1.87160782       36      -2.00000000      -2.00000000      -0.02348789       0.02354834       0.00119428
O        2.93598600       0.00000000       6.30722818       36      -2.00000000      -2.00000000      -0.02348789       0.02354834      -0.00119428
O        0.00000000       5.88708550       6.30722818       36      -2.00000000      -2.00000000      -0.02348789       0.02354834      -0.00119428
O        0.00000000       5.88708550       1.87160782       36      -2.00000000      -2.00000000      -0.02348789       0.02354834       0.00119428
40
Lattice="5.869492664613987 0.0 0.0 -0.004705349020276898 11.765889691427818 0.0 -9.359618781501158e-06 -2.3807246642751655e-07 8.17154574017803" Properties=species:S:1:pos:R:3:spacegroup_kinds:I:1:field_charges:R:1:initial_charges:R:1:forces:R:3 spacegroup="P b a m" unit_cell=conventional occupancy="_JSON {\"0\": {\"Pb\": 1.0}, \"1\": {\"Pb\": 1.0}, \"2\": {\"Pb\": 1.0}, \"3\": {\"Pb\": 1.0}, \"4\": {\"Pb\": 1.0}, \"5\": {\"Pb\": 1.0}, \"6\": {\"Pb\": 1.0}, \"7\": {\"Pb\": 1.0}, \"8\": {\"Zr\": 1.0}, \"9\": {\"Zr\": 1.0}, \"10\": {\"Zr\": 1.0}, \"11\": {\"Zr\": 1.0}, \"12\": {\"Zr\": 1.0}, \"13\": {\"Zr\": 1.0}, \"14\": {\"Zr\": 1.0}, \"15\": {\"Zr\": 1.0}, \"16\": {\"O\": 1.0}, \"17\": {\"O\": 1.0}, \"18\": {\"O\": 1.0}, \"19\": {\"O\": 1.0}, \"20\": {\"O\": 1.0}, \"21\": {\"O\": 1.0}, \"22\": {\"O\": 1.0}, \"23\": {\"O\": 1.0}, \"24\": {\"O\": 1.0}, \"25\": {\"O\": 1.0}, \"26\": {\"O\": 1.0}, \"27\": {\"O\": 1.0}, \"28\": {\"O\": 1.0}, \"29\": {\"O\": 1.0}, \"30\": {\"O\": 1.0}, \"31\": {\"O\": 1.0}, \"32\": {\"O\": 1.0}, \"33\": {\"O\": 1.0}, \"34\": {\"O\": 1.0}, \"35\": {\"O\": 1.0}, \"36\": {\"O\": 1.0}, \"37\": {\"O\": 1.0}, \"38\": {\"O\": 1.0}, \"39\": {\"O\": 1.0}}" neb_image=1 energy=-39205.781982770866 polarization_c_per_m2="_JSON [0.020170200000109863, -0.006943835933729734, 8.737368726222533e-06]" pbc="T T T"
Pb       1.19168230       1.41351743       0.00009455        0       2.00000000       2.00000000       0.00429695      -0.00867012      -0.00001046
Pb       4.70487039      10.27861104      -0.00008595        0       2.00000000       2.00000000       0.00286983      -0.00801097       0.00000501
Pb       1.76980392       7.30691421      -0.00008338        0       2.00000000       2.00000000       0.00253273      -0.00630453       0.00000545
Pb       4.11710859       4.39897682       0.00010394        0       2.00000000       2.00000000       0.00245586      -0.00726711      -0.00001180
Pb       1.22265021       1.49273675       4.08581187        4       2.00000000       2.00000000      -0.00091585      -0.00426940      -0.00000713
Pb       4.63394455      10.23416113       4.08574946        4       2.00000000       2.00000000      -0.00095550      -0.00455010       0.00000041
Pb       1.72842626       7.36614663       4.08574815        4       2.00000000       2.00000000       0.00540350      -0.00642194       0.00000051
Pb       4.18538245       4.34274810       4.08580903        4       2.00000000       2.00000000       0.00567912      -0.00646163      -0.00000564
Zr       4.35584662       1.45181420       2.03684496        8       4.00000000       4.00000000       0.00044013      -0.00247398      -0.00078080
Zr       1.51442186      10.29147953       6.12768251        8       4.00000000       4.00000000       0.00078397      -0.00262927      -0.00080930
Zr       1.51441023      10.29145938       2.04384958        8       4.00000000       4.00000000       0.00078546      -0.00262744       0.00080936
Zr       4.35585552       1.45183584       6.13472322        8       4.00000000       4.00000000       0.00043943      -0.00247568       0.00077695
Zr       4.45928396       7.33213294       6.13418919        8       4.00000000       4.00000000       0.00280885      -0.00306806       0.00066316
Zr       1.42811731       4.40713568       2.04320297        8       4.00000000       4.00000000       0.00229855      -0.00294430       0.00065766
Zr       1.42812858       4.40711532       6.12836341        8       4.00000000       4.00000000       0.00229754      -0.00294321      -0.00066051
Zr       4.45927200       7.33215470       2.03734098        8       4.00000000       4.00000000       0.00281050      -0.00306960      -0.00066222
O        4.53374830       1.87307946       0.00000498       16      -2.00000000      -2.00000000      -0.00459965       0.00400876      -0.00000051
O        1.29469168       9.93156901      -0.00000465       16      -2.00000000      -2.00000000      -0.00362231       0.00474572       0.00000057
O        4.25039868       7.74399680      -0.00000527       16      -2.00000000      -2.00000000       0.00092870       0.00129245       0.00000078
O        1.62323156       4.03697761       0.00000452       16      -2.00000000      -2.00000000       0.00109421       0.00211359      -0.00000019
O        4.68373183       1.11446438       4.08577056       20      -2.00000000      -2.00000000      -0.00371151       0.00220068       0.00000027
O        1.14952958      10.66884854       4.08577356       20      -2.00000000      -2.00000000      -0.00341328       0.00173213       0.00000028
O        4.10822630       7.00356062       4.08577327       20      -2.00000000      -2.00000000       0.00167840       0.00359372       0.00000030
O        1.76969193       4.78879496       4.08576996       20      -2.00000000      -2.00000000       0.00130787       0.00238458       0.00000045
O        3.13220922       3.09470832       2.29820913       24      -2.00000000      -2.00000000       0.00105795       0.00293493      -0.00085175
O        2.74585597       8.69548537       5.86943187       24      -2.00000000      -2.00000000       0.00195045       0.00255994      -0.00002289
O        2.74597521       8.69559908       2.30216369       24      -2.00000000      -2.00000000       0.00194308       0.00255171       0.00002205
O        3.13206539       3.09457483       5.87325414       24      -2.00000000      -2.00000000       0.00107469       0.00294972       0.00086293
O        5.66040742       8.98153376       5.88278760       24      -2.00000000      -2.00000000      -0.00259287       0.00381523       0.00299501
O        0.17662603       2.81608862       2.31240989       24      -2.00000000      -2.00000000      -0.00368120       0.00336383       0.00235337
O        0.17648415       2.81622216       5.85906715       24      -2.00000000      -2.00000000      -0.00366473       0.00334772      -0.00234546
O        5.66052614       8.98142281       2.28881618       24      -2.00000000      -2.00000000      -0.00259994       0.00382244      -0.00299732
O        2.92620936       5.90231302       1.65374998       32      -2.00000000      -2.00000000      -0.00137314       0.00436294       0.00079071
O        2.92631721       5.90222312       6.51779584       32      -2.00000000      -2.00000000      -0.00138286       0.00437085      -0.00078945
O       -0.00710617       0.01283741       6.52020165       32      -2.00000000      -2.00000000      -0.00162517       0.00288549      -0.00024037
O       -0.00721381       0.01274780       1.65133303       32      -2.00000000      -2.00000000      -0.00161354       0.00289518       0.00024479
O        2.90091445       0.02600635       1.86865745       36      -2.00000000      -2.00000000      -0.00762390       0.00585655      -0.00028676
O        2.90108005       0.02584906       6.30288976       36      -2.00000000      -2.00000000      -0.00763969       0.00587104       0.00028827
O        0.00669277       5.88416379       6.30124073       36      -2.00000000      -2.00000000       0.00203113       0.00025682      -0.00008099
O        0.00652391       5.88400405       1.87029232       36      -2.00000000      -2.00000000       0.00204623       0.00027129       0.00008525
40
Lattice="5.870102626142306 0.0 0.0 -0.007912800591819535 11.7652812684352 0.0 0.0028974522721559367 8.990067162482919e-05 8.17236122402667" Properties=species:S:1:pos:R:3:spacegroup_kinds:I:1:field_charges:R:1:initial_charges:R:1:forces:R:3 spacegroup="P b a m" unit_cell=conventional occupancy="_JSON {\"0\": {\"Pb\": 1.0}, \"1\": {\"Pb\": 1.0}, \"2\": {\"Pb\": 1.0}, \"3\": {\"Pb\": 1.0}, \"4\": {\"Pb\": 1.0}, \"5\": {\"Pb\": 1.0}, \"6\": {\"Pb\": 1.0}, \"7\": {\"Pb\": 1.0}, \"8\": {\"Zr\": 1.0}, \"9\": {\"Zr\": 1.0}, \"10\": {\"Zr\": 1.0}, \"11\": {\"Zr\": 1.0}, \"12\": {\"Zr\": 1.0}, \"13\": {\"Zr\": 1.0}, \"14\": {\"Zr\": 1.0}, \"15\": {\"Zr\": 1.0}, \"16\": {\"O\": 1.0}, \"17\": {\"O\": 1.0}, \"18\": {\"O\": 1.0}, \"19\": {\"O\": 1.0}, \"20\": {\"O\": 1.0}, \"21\": {\"O\": 1.0}, \"22\": {\"O\": 1.0}, \"23\": {\"O\": 1.0}, \"24\": {\"O\": 1.0}, \"25\": {\"O\": 1.0}, \"26\": {\"O\": 1.0}, \"27\": {\"O\": 1.0}, \"28\": {\"O\": 1.0}, \"29\": {\"O\": 1.0}, \"30\": {\"O\": 1.0}, \"31\": {\"O\": 1.0}, \"32\": {\"O\": 1.0}, \"33\": {\"O\": 1.0}, \"34\": {\"O\": 1.0}, \"35\": {\"O\": 1.0}, \"36\": {\"O\": 1.0}, \"37\": {\"O\": 1.0}, \"38\": {\"O\": 1.0}, \"39\": {\"O\": 1.0}}" neb_image=2 energy=-39205.78183991418 polarization_c_per_m2="_JSON [0.0231276972634245, -0.02257348823037526, -0.003997429706910659]" pbc="T T T"
Pb       1.19783720       1.39636657      -0.02987065        0       2.00000000       2.00000000       0.00020403       0.00049376       0.00449875
Pb       4.70321978      10.26282970       0.02504417        0       2.00000000       2.00000000      -0.00028617       0.00225636      -0.00090327
Pb       1.77100921       7.29700517       0.02460776        0       2.00000000       2.00000000      -0.00063366       0.00104711      -0.00136729
Pb       4.11804565       4.38579697      -0.03295899        0       2.00000000       2.00000000      -0.00019235       0.00170556       0.00416569
Pb       1.21616813       1.48541832       4.07254882        4       2.00000000       2.00000000       0.00132559       0.00145925       0.00347043
Pb       4.62708315      10.22628133       4.09259010        4       2.00000000       2.00000000       0.00081617       0.00084512       0.00038143
Pb       1.73708901       7.35505340       4.09297870        4       2.00000000       2.00000000      -0.00111334       0.00102904       0.00037171
Pb       4.19394128       4.33086885       4.07402121        4       2.00000000       2.00000000      -0.00013705       0.00178187       0.00235184
Zr       4.35626097       1.45127859       2.03172492        8       4.00000000       4.00000000       0.00027775       0.00034537       0.00093973
Zr       1.50936145      10.28390604       6.12855437        8       4.00000000       4.00000000       0.00060064       0.00069289       0.00025533
Zr       1.51291026      10.29008598       2.04743135        8       4.00000000       4.00000000       0.00000261       0.00001923      -0.00004991
Zr       4.35377932       1.44479254       6.13289959        8       4.00000000       4.00000000       0.00062177       0.00092267       0.00066694
Zr       4.46169709       7.33079536       6.13806688        8       4.00000000       4.00000000      -0.00025513       0.00030318      -0.00006441
Zr       1.43318767       4.40053999       2.04113123        8       4.00000000       4.00000000      -0.00032929       0.00039406       0.00049495
Zr       1.42993497       4.40644407       6.12447586        8       4.00000000       4.00000000      -0.00011262       0.00017515       0.00071914
Zr       4.46543128       7.32432288       2.03886202        8       4.00000000       4.00000000      -0.00075386       0.00067568       0.00002385
O        4.52080393       1.87538911      -0.00155462       16      -2.00000000      -2.00000000       0.00224515       0.00066318       0.00015813
O        1.28646494       9.93877202       0.00149318       16      -2.00000000      -2.00000000       0.00048160      -0.00132111      -0.00028021
O        4.25653808       7.74394703       0.00176228       16      -2.00000000      -2.00000000      -0.00079719      -0.00002140      -0.00024926
O        1.62930675       4.04059463      -0.00127127       16      -2.00000000      -2.00000000      -0.00120002      -0.00097093       0.00003304
O        4.67734908       1.11572653       4.08691742       20      -2.00000000      -2.00000000       0.00074065      -0.00146065      -0.00017765
O        1.14327259      10.66709113       4.08612358       20      -2.00000000      -2.00000000       0.00073604       0.00072770      -0.00019503
O        4.11578798       7.01219834       4.08619704       20      -2.00000000      -2.00000000      -0.00124779      -0.00163608      -0.00015873
O        1.77283480       4.79204235       4.08715074       20      -2.00000000      -2.00000000       0.00013744       0.00003178      -0.00020480
O        3.10983974       3.07500136       2.31327120       24      -2.00000000      -2.00000000       0.00345448       0.00281904      -0.00216884
O        2.76645513       8.71637724       5.86595683       24      -2.00000000      -2.00000000      -0.00107020      -0.00128630      -0.00061888
O        2.73123739       8.68237945       2.29281073       24      -2.00000000      -2.00000000       0.00068744       0.00081332       0.00042301
O        3.15576022       3.11711804       5.88610683       24      -2.00000000      -2.00000000      -0.00264829      -0.00245302      -0.00184633
O        5.67220123       8.97211084       5.88151365       24      -2.00000000      -2.00000000       0.00002214      -0.00004249      -0.00128883
O        0.14501701       2.84719741       2.32777606       24      -2.00000000      -2.00000000       0.00434358      -0.00430718      -0.00082197
O        0.19029467       2.80440564       5.86638202       24      -2.00000000      -2.00000000      -0.00195810       0.00178935      -0.00279287
O        5.63727409       9.00480763       2.27439742       24      -2.00000000      -2.00000000       0.00166372      -0.00205197       0.00118727
O        2.94731139       5.89125675       1.65736775       32      -2.00000000      -2.00000000      -0.00240089       0.00114054      -0.00135199
O        2.91451362       5.91873967       6.51549707       32      -2.00000000      -2.00000000       0.00045027      -0.00112123       0.00021944
O       -0.02360719       0.00550128       6.52109629       32      -2.00000000      -2.00000000       0.00186359       0.00066990      -0.00002350
O        0.01008267       0.03374850       1.65629323       32      -2.00000000      -2.00000000      -0.00272311      -0.00322665      -0.00220526
O        2.91615115       0.00914186       1.86985847       36      -2.00000000      -2.00000000      -0.00230772       0.00256673      -0.00254686
O        2.86519081       0.05750863       6.30282643       36      -2.00000000      -2.00000000       0.00348766      -0.00255777       0.00060586
O       -0.00635598       5.86735307       6.30354475       36      -2.00000000      -2.00000000       0.00031989       0.00085988      -0.00072233
O        0.04509555       5.91630659       1.87415497       36      -2.00000000      -2.00000000      -0.00431544      -0.00377095      -0.00092830
40
Lattice="5.872855152105027 0.0 0.0 -0.004654776756164979 11.762491930376335 0.0 0.005874922966262987 0.00023573918848750197 8.176958647478854" Properties=species:S:1:pos:R:3:spacegroup_kinds:I:1:field_charges:R:1:initial_charges:R:1:forces:R:3 spacegroup="P b a m" unit_cell=conventional occupancy="_JSON {\"0\": {\"Pb\": 1.0}, \"1\": {\"Pb\": 1.0}, \"2\": {\"Pb\": 1.0}, \"3\": {\"Pb\": 1.0}, \"4\": {\"Pb\": 1.0}, \"5\": {\"Pb\": 1.0}, \"6\": {\"Pb\": 1.0}, \"7\": {\"Pb\": 1.0}, \"8\": {\"Zr\": 1.0}, \"9\": {\"Zr\": 1.0}, \"10\": {\"Zr\": 1.0}, \"11\": {\"Zr\": 1.0}, \"12\": {\"Zr\": 1.0}, \"13\": {\"Zr\": 1.0}, \"14\": {\"Zr\": 1.0}, \"15\": {\"Zr\": 1.0}, \"16\": {\"O\": 1.0}, \"17\": {\"O\": 1.0}, \"18\": {\"O\": 1.0}, \"19\": {\"O\": 1.0}, \"20\": {\"O\": 1.0}, \"21\": {\"O\": 1.0}, \"22\": {\"O\": 1.0}, \"23\": {\"O\": 1.0}, \"24\": {\"O\": 1.0}, \"25\": {\"O\": 1.0}, \"26\": {\"O\": 1.0}, \"27\": {\"O\": 1.0}, \"28\": {\"O\": 1.0}, \"29\": {\"O\": 1.0}, \"30\": {\"O\": 1.0}, \"31\": {\"O\": 1.0}, \"32\": {\"O\": 1.0}, \"33\": {\"O\": 1.0}, \"34\": {\"O\": 1.0}, \"35\": {\"O\": 1.0}, \"36\": {\"O\": 1.0}, \"37\": {\"O\": 1.0}, \"38\": {\"O\": 1.0}, \"39\": {\"O\": 1.0}}" neb_image=3 energy=-39205.77466483899 polarization_c_per_m2="_JSON [0.021948655340019736, -0.03840309117912587, -0.02131634531678476]" pbc="T T T"
Pb       1.19752175       1.38938568      -0.06527996        0       2.00000000       2.00000000      -0.00012797       0.00119193       0.01807487
Pb       4.71086838      10.23918580       0.02915910        0       2.00000000       2.00000000      -0.00162463       0.01417004       0.01028915
Pb       1.78011230       7.28692789       0.03269193        0       2.00000000       2.00000000      -0.00375894       0.00839241       0.00342634
Pb       4.12265187       4.37137569      -0.06559534        0       2.00000000       2.00000000      -0.00114222       0.01324958       0.01331000
Pb       1.20592999       1.47331158       4.04604605        4       2.00000000       2.00000000       0.00647347       0.01309673       0.02338166
Pb       4.62579867      10.21745552       4.09025932        4       2.00000000       2.00000000       0.00431488       0.00770928       0.00679760
Pb       1.75058611       7.34354204       4.09045168        4       2.00000000       2.00000000      -0.00825429       0.00669753       0.00713858
Pb       4.19963038       4.31283135       4.05697093        4       2.00000000       2.00000000      -0.00085946       0.01253065       0.00941698
Zr       4.35647674       1.44729589       2.02484869        8       4.00000000       4.00000000       0.00225319       0.00327940       0.00462237
Zr       1.51005929      10.27551289       6.12931962        8       4.00000000       4.00000000       0.00164943       0.00256863       0.00282458
Zr       1.51672649      10.28673391       2.04876391        8       4.00000000       4.00000000       0.00088696       0.00189092       0.00148509
Zr       4.35317603       1.43670307       6.13123387        8       4.00000000       4.00000000       0.00206282       0.00397039       0.00313904
Zr       4.47096318       7.32619825       6.14148232        8       4.00000000       4.00000000      -0.00255961       0.00399710       0.00086173
Zr       1.43851659       4.39655934       2.03828975        8       4.00000000       4.00000000      -0.00058125       0.00091129       0.00170350
Zr       1.43554849       4.40355145       6.12199020        8       4.00000000       4.00000000      -0.00082866       0.00286663       0.00320976
Zr       4.47693138       7.31720561       2.03944677        8       4.00000000       4.00000000      -0.00332140       0.00285239       0.00158724
O        4.50392665       1.86937466      -0.00266448       16      -2.00000000      -2.00000000       0.01482649       0.00479005       0.00001894
O        1.28473479       9.94793796       0.00376253       16      -2.00000000      -2.00000000       0.00349122      -0.00927762      -0.00122197
O        4.26841605       7.74250678       0.00371082       16      -2.00000000      -2.00000000      -0.00314882      -0.00003469      -0.00069374
O        1.64216793       4.04759170      -0.00132568       16      -2.00000000      -2.00000000      -0.00857070      -0.00744332      -0.00071686
O        4.67459752       1.12604368       4.09069364       20      -2.00000000      -2.00000000       0.00483383      -0.01453710      -0.00123609
O        1.14137516      10.65667461       4.09015923       20      -2.00000000      -2.00000000       0.00362476       0.00403321      -0.00160779
O        4.13179306       7.02687292       4.08988410       20      -2.00000000      -2.00000000      -0.00842499      -0.01064484      -0.00120971
O        1.77559010       4.79282418       4.09117560       20      -2.00000000      -2.00000000       0.00140760       0.00250335      -0.00121181
O        3.08326690       3.05011282       2.33430277       24      -2.00000000      -2.00000000       0.00967063       0.00599844      -0.00582401
O        2.77638398       8.72036622       5.87828669       24      -2.00000000      -2.00000000      -0.00100882      -0.00257920      -0.00587701
O        2.73021518       8.67361514       2.28923545       24      -2.00000000      -2.00000000      -0.00576117      -0.00526254      -0.00276185
O        3.17873269       3.13326127       5.90197298       24      -2.00000000      -2.00000000      -0.00783450      -0.00758524      -0.00912412
O        5.67392208       8.97570454       5.89915411       24      -2.00000000      -2.00000000       0.00636748      -0.00624125      -0.01257072
O        0.10890461       2.88417606       2.33764295       24      -2.00000000      -2.00000000       0.01515158      -0.01546530       0.00254134
O        0.20536155       2.79344781       5.89024343       24      -2.00000000      -2.00000000      -0.00316537       0.00297008      -0.01918043
O        5.62895387       9.02057963       2.26507350       24      -2.00000000      -2.00000000       0.00056621      -0.00345945       0.00205087
O        2.97263051       5.87945145       1.66949005       32      -2.00000000      -2.00000000      -0.00227258      -0.00348712      -0.01110293
O        2.92171463       5.92272255       6.51830694       32      -2.00000000      -2.00000000      -0.00188998      -0.00340217       0.00202149
O       -0.03285608       0.00391346       6.52478810       32      -2.00000000      -2.00000000       0.00536207      -0.00029988       0.00046600
O        0.03402713       0.06201997       1.67625684       32      -2.00000000      -2.00000000      -0.01015751      -0.01511666      -0.01790925
O        2.93601111      -0.01162804       1.89250951       36      -2.00000000      -2.00000000      -0.00121743       0.00313310      -0.01860452
O        2.84359632       0.07455291       6.30196504       36      -2.00000000      -2.00000000       0.01077480      -0.00636513       0.00104703
O        0.00185307       5.86514570       6.31351964       36      -2.00000000      -2.00000000      -0.00661809      -0.00274449      -0.00435676
O        0.08478910       5.94758215       1.88311546       36      -2.00000000      -2.00000000      -0.01058903      -0.00885714      -0.00420457
40